<?xml version="1.0" encoding="UTF-8"?>

<!-- generated on 2023-12-01 14:32:53 by Eclipse SUMO GUI Version 1.18.0
<configuration xmlns:xsi="http://www.w3.org/2001/XMLSchema-instance" xsi:noNamespaceSchemaLocation="http://sumo.dlr.de/xsd/sumoConfiguration.xsd">

    <input>
        <net-file value="/home/wmn/TrafficAlpha/TSC-LLM/TSCRL/../TSCScenario/4way/env/4way.net.xml"/>
        <route-files value="/home/wmn/TrafficAlpha/TSC-LLM/TSCRL/../TSCScenario/4way/env/../routes/vehicle.rou.xml"/>
        <additional-files value="/home/wmn/TrafficAlpha/TSC-LLM/TSCRL/../TSCScenario/4way/env/../add/tls.add.xml,/home/wmn/TrafficAlpha/TSC-LLM/TSCRL/../TSCScenario/4way/env/ ../add/e2.add.xml"/>
    </input>

    <output>
        <tripinfo-output value="/home/wmn/TrafficAlpha/TSC-LLM/TSCRL/./4way_choose_next_phase.tripinfo.xml"/>
    </output>

    <processing>
        <time-to-teleport value="-1"/>
        <waiting-time-memory value="10000"/>
        <max-depart-delay value="100000"/>
    </processing>

    <report>
        <no-warnings value="true"/>
        <no-step-log value="true"/>
    </report>

    <traci_server>
        <remote-port value="50385"/>
    </traci_server>

    <random_number>
        <random value="true"/>
    </random_number>

    <gui_only>
        <quit-on-end value="true"/>
        <start value="true"/>
    </gui_only>

</configuration>
-->

<tripinfos xmlns:xsi="http://www.w3.org/2001/XMLSchema-instance" xsi:noNamespaceSchemaLocation="http://sumo.dlr.de/xsd/tripinfo_file.xsd">
    <tripinfo id="-E1__0__background.0" depart="1.00" departLane="-E1_2" departPos="4.60" departSpeed="0.00" departDelay="0.16" arrival="29.00" arrivalLane="E3_2" arrivalPos="113.06" arrivalSpeed="13.03" duration="28.00" routeLength="267.65" waitingTime="0.00" waitingCount="0" stopTime="0.00" timeLoss="7.31" rerouteNo="0" devices="tripinfo_-E1__0__background.0" vType="background" speedFactor="0.97" vaporized=""/>
    <tripinfo id="-E3__0__ego.0" depart="7.00" departLane="-E3_2" departPos="4.60" departSpeed="0.00" departDelay="0.46" arrival="37.00" arrivalLane="-E2_2" arrivalPos="107.89" arrivalSpeed="12.62" duration="30.00" routeLength="243.42" waitingTime="3.00" waitingCount="1" stopTime="0.00" timeLoss="11.28" rerouteNo="0" devices="tripinfo_-E3__0__ego.0" vType="ego" speedFactor="0.97" vaporized=""/>
    <tripinfo id="E2__0__background.0" depart="6.00" departLane="E2_3" departPos="4.60" departSpeed="0.00" departDelay="0.01" arrival="38.00" arrivalLane="E3_2" arrivalPos="113.06" arrivalSpeed="10.87" duration="32.00" routeLength="243.41" waitingTime="3.00" waitingCount="1" stopTime="0.00" timeLoss="10.93" rerouteNo="0" devices="tripinfo_E2__0__background.0" vType="background" speedFactor="0.84" vaporized=""/>
    <tripinfo id="-E3__0__background.0" depart="13.00" departLane="-E3_3" departPos="4.60" departSpeed="0.00" departDelay="0.68" arrival="38.00" arrivalLane="-E2_2" arrivalPos="107.89" arrivalSpeed="14.70" duration="25.00" routeLength="243.42" waitingTime="0.00" waitingCount="0" stopTime="0.00" timeLoss="8.65" rerouteNo="0" devices="tripinfo_-E3__0__background.0" vType="background" speedFactor="1.12" vaporized=""/>
    <tripinfo id="E2__0__ego.0" depart="8.00" departLane="E2_3" departPos="4.60" departSpeed="0.00" departDelay="0.05" arrival="41.00" arrivalLane="E3_2" arrivalPos="113.06" arrivalSpeed="10.58" duration="33.00" routeLength="243.41" waitingTime="2.00" waitingCount="1" stopTime="0.00" timeLoss="11.02" rerouteNo="0" devices="tripinfo_E2__0__ego.0" vType="ego" speedFactor="0.82" vaporized=""/>
    <tripinfo id="-E3__0__ego.1" depart="9.00" departLane="-E3_2" departPos="4.60" departSpeed="0.00" departDelay="2.20" arrival="46.00" arrivalLane="-E0_2" arrivalPos="118.28" arrivalSpeed="14.09" duration="37.00" routeLength="251.36" waitingTime="8.00" waitingCount="1" stopTime="0.00" timeLoss="19.55" rerouteNo="0" devices="tripinfo_-E3__0__ego.1" vType="ego" speedFactor="1.10" vaporized=""/>
    <tripinfo id="E0__0__background.0" depart="4.00" departLane="E0_2" departPos="4.60" departSpeed="0.00" departDelay="0.42" arrival="51.00" arrivalLane="E3_1" arrivalPos="113.06" arrivalSpeed="14.11" duration="47.00" routeLength="238.81" waitingTime="20.00" waitingCount="1" stopTime="0.00" timeLoss="30.45" rerouteNo="0" devices="tripinfo_E0__0__background.0" vType="background" speedFactor="1.12" vaporized=""/>
    <tripinfo id="-E1__0__background.1" depart="5.00" departLane="-E1_1" departPos="4.60" departSpeed="0.00" departDelay="0.84" arrival="51.00" arrivalLane="-E2_1" arrivalPos="107.89" arrivalSpeed="14.16" duration="46.00" routeLength="250.13" waitingTime="20.00" waitingCount="1" stopTime="0.00" timeLoss="28.55" rerouteNo="0" devices="tripinfo_-E1__0__background.1" vType="background" speedFactor="1.19" vaporized=""/>
    <tripinfo id="-E1__0__background.2" depart="7.00" departLane="-E1_2" departPos="4.60" departSpeed="0.00" departDelay="1.32" arrival="53.00" arrivalLane="-E0_2" arrivalPos="118.28" arrivalSpeed="13.44" duration="46.00" routeLength="276.29" waitingTime="17.00" waitingCount="1" stopTime="0.00" timeLoss="25.67" rerouteNo="0" devices="tripinfo_-E1__0__background.2" vType="background" speedFactor="0.98" vaporized=""/>
    <tripinfo id="E0__0__background.2" depart="12.00" departLane="E0_2" departPos="4.60" departSpeed="0.00" departDelay="0.97" arrival="54.00" arrivalLane="E1_2" arrivalPos="134.76" arrivalSpeed="14.85" duration="42.00" routeLength="276.28" waitingTime="13.00" waitingCount="2" stopTime="0.00" timeLoss="23.22" rerouteNo="0" devices="tripinfo_E0__0__background.2" vType="background" speedFactor="1.11" vaporized=""/>
    <tripinfo id="-E1__0__ego.0" depart="8.00" departLane="-E1_3" departPos="4.60" departSpeed="0.00" departDelay="0.29" arrival="55.00" arrivalLane="-E2_1" arrivalPos="107.89" arrivalSpeed="12.43" duration="47.00" routeLength="250.13" waitingTime="15.00" waitingCount="1" stopTime="0.00" timeLoss="27.19" rerouteNo="0" devices="tripinfo_-E1__0__ego.0" vType="ego" speedFactor="0.96" vaporized=""/>
    <tripinfo id="E0__0__background.1" depart="11.00" departLane="E0_3" departPos="4.60" departSpeed="0.00" departDelay="0.12" arrival="55.00" arrivalLane="E3_1" arrivalPos="113.06" arrivalSpeed="12.48" duration="44.00" routeLength="238.81" waitingTime="15.00" waitingCount="1" stopTime="0.00" timeLoss="24.02" rerouteNo="0" devices="tripinfo_E0__0__background.1" vType="background" speedFactor="0.91" vaporized=""/>
    <tripinfo id="-E1__0__background.5" depart="24.00" departLane="-E1_2" departPos="4.60" departSpeed="0.00" departDelay="0.65" arrival="55.00" arrivalLane="-E0_2" arrivalPos="118.28" arrivalSpeed="13.24" duration="31.00" routeLength="276.29" waitingTime="0.00" waitingCount="0" stopTime="0.00" timeLoss="11.59" rerouteNo="0" devices="tripinfo_-E1__0__background.5" vType="background" speedFactor="1.03" vaporized=""/>
    <tripinfo id="E0__0__background.4" depart="26.00" departLane="E0_1" departPos="4.60" departSpeed="0.00" departDelay="0.10" arrival="56.00" arrivalLane="E1_2" arrivalPos="134.76" arrivalSpeed="14.66" duration="30.00" routeLength="276.28" waitingTime="1.00" waitingCount="1" stopTime="0.00" timeLoss="11.23" rerouteNo="0" devices="tripinfo_E0__0__background.4" vType="background" speedFactor="1.10" vaporized=""/>
    <tripinfo id="-E1__0__ego.1" depart="11.00" departLane="-E1_1" departPos="4.60" departSpeed="0.00" departDelay="0.18" arrival="57.00" arrivalLane="-E2_1" arrivalPos="107.89" arrivalSpeed="13.64" duration="46.00" routeLength="250.13" waitingTime="15.00" waitingCount="1" stopTime="0.00" timeLoss="26.80" rerouteNo="0" devices="tripinfo_-E1__0__ego.1" vType="ego" speedFactor="0.99" vaporized=""/>
    <tripinfo id="E0__0__ego.0" depart="17.00" departLane="E0_2" departPos="4.60" departSpeed="0.00" departDelay="1.07" arrival="57.00" arrivalLane="E3_1" arrivalPos="113.06" arrivalSpeed="13.67" duration="40.00" routeLength="238.81" waitingTime="11.00" waitingCount="1" stopTime="0.00" timeLoss="22.25" rerouteNo="0" devices="tripinfo_E0__0__ego.0" vType="ego" speedFactor="1.05" vaporized=""/>
    <tripinfo id="E0__0__background.5" depart="29.00" departLane="E0_3" departPos="4.60" departSpeed="0.00" departDelay="2.30" arrival="59.00" arrivalLane="E1_2" arrivalPos="134.76" arrivalSpeed="13.92" duration="30.00" routeLength="276.28" waitingTime="0.00" waitingCount="0" stopTime="0.00" timeLoss="9.50" rerouteNo="0" devices="tripinfo_E0__0__background.5" vType="background" speedFactor="1.02" vaporized=""/>
    <tripinfo id="-E1__0__ego.2" depart="36.00" departLane="-E1_3" departPos="4.60" departSpeed="0.00" departDelay="0.09" arrival="59.00" arrivalLane="-E0_2" arrivalPos="118.28" arrivalSpeed="13.24" duration="23.00" routeLength="276.29" waitingTime="0.00" waitingCount="0" stopTime="0.00" timeLoss="3.79" rerouteNo="0" devices="tripinfo_-E1__0__ego.2" vType="ego" speedFactor="1.05" vaporized=""/>
    <tripinfo id="-E1__0__background.3" depart="16.00" departLane="-E1_3" departPos="4.60" departSpeed="0.00" departDelay="0.32" arrival="60.00" arrivalLane="-E2_1" arrivalPos="107.89" arrivalSpeed="12.70" duration="44.00" routeLength="250.13" waitingTime="14.00" waitingCount="1" stopTime="0.00" timeLoss="24.21" rerouteNo="0" devices="tripinfo_-E1__0__background.3" vType="background" speedFactor="0.99" vaporized=""/>
    <tripinfo id="E0__0__background.6" depart="31.00" departLane="E0_2" departPos="4.60" departSpeed="0.00" departDelay="2.21" arrival="61.00" arrivalLane="E1_2" arrivalPos="134.76" arrivalSpeed="12.97" duration="30.00" routeLength="276.28" waitingTime="0.00" waitingCount="0" stopTime="0.00" timeLoss="8.99" rerouteNo="0" devices="tripinfo_E0__0__background.6" vType="background" speedFactor="0.99" vaporized=""/>
    <tripinfo id="E0__0__background.7" depart="37.00" departLane="E0_3" departPos="4.60" departSpeed="0.00" departDelay="0.21" arrival="63.00" arrivalLane="E1_2" arrivalPos="134.76" arrivalSpeed="12.21" duration="26.00" routeLength="276.28" waitingTime="0.00" waitingCount="0" stopTime="0.00" timeLoss="4.31" rerouteNo="0" devices="tripinfo_E0__0__background.7" vType="background" speedFactor="0.93" vaporized=""/>
    <tripinfo id="-E3__0__background.1" depart="20.00" departLane="-E3_1" departPos="4.60" departSpeed="0.00" departDelay="0.72" arrival="65.00" arrivalLane="-E2_2" arrivalPos="107.89" arrivalSpeed="14.35" duration="45.00" routeLength="243.42" waitingTime="20.00" waitingCount="1" stopTime="0.00" timeLoss="28.24" rerouteNo="0" devices="tripinfo_-E3__0__background.1" vType="background" speedFactor="1.06" vaporized=""/>
    <tripinfo id="E2__0__background.1" depart="26.00" departLane="E2_2" departPos="4.60" departSpeed="0.00" departDelay="0.78" arrival="66.00" arrivalLane="E3_2" arrivalPos="113.06" arrivalSpeed="14.65" duration="40.00" routeLength="243.41" waitingTime="14.00" waitingCount="1" stopTime="0.00" timeLoss="22.98" rerouteNo="0" devices="tripinfo_E2__0__background.1" vType="background" speedFactor="1.21" vaporized=""/>
    <tripinfo id="-E3__0__background.3" depart="27.00" departLane="-E3_2" departPos="4.60" departSpeed="0.00" departDelay="0.05" arrival="66.00" arrivalLane="E1_1" arrivalPos="134.76" arrivalSpeed="13.80" duration="39.00" routeLength="254.61" waitingTime="12.00" waitingCount="1" stopTime="0.00" timeLoss="21.04" rerouteNo="0" devices="tripinfo_-E3__0__background.3" vType="background" speedFactor="1.14" vaporized=""/>
    <tripinfo id="E2__0__background.2" depart="29.00" departLane="E2_2" departPos="4.60" departSpeed="0.00" departDelay="0.71" arrival="68.00" arrivalLane="E3_2" arrivalPos="113.06" arrivalSpeed="13.53" duration="39.00" routeLength="243.41" waitingTime="12.00" waitingCount="1" stopTime="0.00" timeLoss="21.52" rerouteNo="0" devices="tripinfo_E2__0__background.2" vType="background" speedFactor="1.02" vaporized=""/>
    <tripinfo id="-E3__0__background.2" depart="22.00" departLane="-E3_1" departPos="4.60" departSpeed="0.00" departDelay="1.68" arrival="69.00" arrivalLane="-E2_2" arrivalPos="107.89" arrivalSpeed="11.10" duration="47.00" routeLength="243.42" waitingTime="16.00" waitingCount="1" stopTime="0.00" timeLoss="25.98" rerouteNo="0" devices="tripinfo_-E3__0__background.2" vType="background" speedFactor="0.85" vaporized=""/>
    <tripinfo id="E2__0__ego.1" depart="34.00" departLane="E2_2" departPos="4.60" departSpeed="0.00" departDelay="0.34" arrival="70.00" arrivalLane="E3_2" arrivalPos="113.06" arrivalSpeed="13.39" duration="36.00" routeLength="243.41" waitingTime="7.00" waitingCount="1" stopTime="0.00" timeLoss="18.84" rerouteNo="0" devices="tripinfo_E2__0__ego.1" vType="ego" speedFactor="1.04" vaporized=""/>
    <tripinfo id="-E3__0__background.4" depart="42.00" departLane="-E3_2" departPos="4.60" departSpeed="0.00" departDelay="0.70" arrival="71.00" arrivalLane="-E2_2" arrivalPos="107.89" arrivalSpeed="11.18" duration="29.00" routeLength="243.42" waitingTime="0.00" waitingCount="0" stopTime="0.00" timeLoss="8.81" rerouteNo="0" devices="tripinfo_-E3__0__background.4" vType="background" speedFactor="0.89" vaporized=""/>
    <tripinfo id="E2__0__background.4" depart="49.00" departLane="E2_1" departPos="4.60" departSpeed="0.00" departDelay="0.86" arrival="73.00" arrivalLane="E3_2" arrivalPos="113.06" arrivalSpeed="12.66" duration="24.00" routeLength="243.41" waitingTime="0.00" waitingCount="0" stopTime="0.00" timeLoss="4.98" rerouteNo="0" devices="tripinfo_E2__0__background.4" vType="background" speedFactor="0.96" vaporized=""/>
    <tripinfo id="E0__0__ego.1" depart="41.00" departLane="E0_3" departPos="4.60" departSpeed="0.00" departDelay="0.46" arrival="79.00" arrivalLane="E3_1" arrivalPos="113.06" arrivalSpeed="12.72" duration="38.00" routeLength="238.81" waitingTime="9.00" waitingCount="1" stopTime="0.00" timeLoss="18.25" rerouteNo="0" devices="tripinfo_E0__0__ego.1" vType="ego" speedFactor="0.93" vaporized=""/>
    <tripinfo id="-E1__0__background.6" depart="47.00" departLane="-E1_1" departPos="4.60" departSpeed="0.00" departDelay="0.98" arrival="79.00" arrivalLane="-E0_2" arrivalPos="118.28" arrivalSpeed="13.20" duration="32.00" routeLength="276.29" waitingTime="4.00" waitingCount="1" stopTime="0.00" timeLoss="12.20" rerouteNo="0" devices="tripinfo_-E1__0__background.6" vType="background" speedFactor="1.01" vaporized=""/>
    <tripinfo id="E0__0__background.8" depart="43.00" departLane="E0_1" departPos="4.60" departSpeed="0.00" departDelay="2.15" arrival="80.00" arrivalLane="E1_2" arrivalPos="134.76" arrivalSpeed="14.02" duration="37.00" routeLength="276.28" waitingTime="7.00" waitingCount="1" stopTime="0.00" timeLoss="18.11" rerouteNo="0" devices="tripinfo_E0__0__background.8" vType="background" speedFactor="1.06" vaporized=""/>
    <tripinfo id="-E1__0__background.4" depart="17.00" departLane="-E1_1" departPos="4.60" departSpeed="0.00" departDelay="0.25" arrival="81.00" arrivalLane="-E2_1" arrivalPos="107.89" arrivalSpeed="9.82" duration="64.00" routeLength="250.13" waitingTime="26.00" waitingCount="2" stopTime="0.00" timeLoss="38.28" rerouteNo="0" devices="tripinfo_-E1__0__background.4" vType="background" speedFactor="0.73" vaporized=""/>
    <tripinfo id="E0__0__ego.3" depart="53.00" departLane="E0_3" departPos="4.60" departSpeed="0.00" departDelay="0.87" arrival="81.00" arrivalLane="E3_1" arrivalPos="113.06" arrivalSpeed="14.37" duration="28.00" routeLength="238.81" waitingTime="0.00" waitingCount="0" stopTime="0.00" timeLoss="10.34" rerouteNo="0" devices="tripinfo_E0__0__ego.3" vType="ego" speedFactor="1.05" vaporized=""/>
    <tripinfo id="-E1__0__ego.3" depart="49.00" departLane="-E1_2" departPos="4.60" departSpeed="0.00" departDelay="0.77" arrival="82.00" arrivalLane="-E0_2" arrivalPos="118.28" arrivalSpeed="12.95" duration="33.00" routeLength="276.29" waitingTime="1.00" waitingCount="1" stopTime="0.00" timeLoss="12.04" rerouteNo="0" devices="tripinfo_-E1__0__ego.3" vType="ego" speedFactor="0.98" vaporized=""/>
    <tripinfo id="E0__0__background.9" depart="46.00" departLane="E0_2" departPos="4.60" departSpeed="0.00" departDelay="1.54" arrival="83.00" arrivalLane="E1_2" arrivalPos="134.76" arrivalSpeed="12.83" duration="37.00" routeLength="276.28" waitingTime="7.00" waitingCount="1" stopTime="0.00" timeLoss="15.37" rerouteNo="0" devices="tripinfo_E0__0__background.9" vType="background" speedFactor="0.93" vaporized=""/>
    <tripinfo id="E0__0__background.3" depart="19.00" departLane="E0_1" departPos="4.60" departSpeed="0.00" departDelay="1.63" arrival="87.00" arrivalLane="-E2_2" arrivalPos="107.89" arrivalSpeed="13.62" duration="68.00" routeLength="245.98" waitingTime="41.00" waitingCount="1" stopTime="0.00" timeLoss="50.18" rerouteNo="0" devices="tripinfo_E0__0__background.3" vType="background" speedFactor="1.03" vaporized=""/>
    <tripinfo id="-E1__0__background.7" depart="47.00" departLane="-E1_3" departPos="4.60" departSpeed="0.00" departDelay="0.98" arrival="87.00" arrivalLane="E3_2" arrivalPos="113.06" arrivalSpeed="13.01" duration="40.00" routeLength="267.65" waitingTime="11.00" waitingCount="1" stopTime="0.00" timeLoss="18.99" rerouteNo="0" devices="tripinfo_-E1__0__background.7" vType="background" speedFactor="0.96" vaporized=""/>
    <tripinfo id="-E1__0__rescue.0" depart="53.00" departLane="-E1_2" departPos="5.10" departSpeed="0.00" departDelay="1.48" arrival="89.00" arrivalLane="E3_2" arrivalPos="113.06" arrivalSpeed="19.93" duration="36.00" routeLength="267.15" waitingTime="7.00" waitingCount="1" stopTime="0.00" timeLoss="22.30" rerouteNo="0" devices="tripinfo_-E1__0__rescue.0" vType="rescue" speedFactor="1.50" vaporized=""/>
    <tripinfo id="E0__1__background.0" depart="65.00" departLane="E0_1" departPos="4.60" departSpeed="0.00" departDelay="0.46" arrival="94.00" arrivalLane="E3_1" arrivalPos="113.06" arrivalSpeed="14.56" duration="29.00" routeLength="238.81" waitingTime="1.00" waitingCount="1" stopTime="0.00" timeLoss="11.63" rerouteNo="0" devices="tripinfo_E0__1__background.0" vType="background" speedFactor="1.06" vaporized=""/>
    <tripinfo id="E0__0__ego.2" depart="48.00" departLane="E0_3" departPos="4.60" departSpeed="0.00" departDelay="0.08" arrival="96.00" arrivalLane="E1_2" arrivalPos="134.76" arrivalSpeed="14.75" duration="48.00" routeLength="276.28" waitingTime="15.00" waitingCount="2" stopTime="0.00" timeLoss="28.90" rerouteNo="0" devices="tripinfo_E0__0__ego.2" vType="ego" speedFactor="1.07" vaporized=""/>
    <tripinfo id="-E1__0__background.9" depart="54.00" departLane="-E1_3" departPos="4.60" departSpeed="0.00" departDelay="0.55" arrival="96.00" arrivalLane="-E0_2" arrivalPos="118.28" arrivalSpeed="13.33" duration="42.00" routeLength="276.29" waitingTime="6.00" waitingCount="1" stopTime="0.00" timeLoss="21.11" rerouteNo="0" devices="tripinfo_-E1__0__background.9" vType="background" speedFactor="1.00" vaporized=""/>
    <tripinfo id="-E1__1__ego.0" depart="62.00" departLane="-E1_1" departPos="4.60" departSpeed="0.00" departDelay="0.46" arrival="97.00" arrivalLane="-E0_2" arrivalPos="118.28" arrivalSpeed="15.10" duration="35.00" routeLength="276.29" waitingTime="5.00" waitingCount="1" stopTime="0.00" timeLoss="16.45" rerouteNo="0" devices="tripinfo_-E1__1__ego.0" vType="ego" speedFactor="1.09" vaporized=""/>
    <tripinfo id="E0__0__background.10" depart="55.00" departLane="E0_3" departPos="4.60" departSpeed="0.00" departDelay="0.06" arrival="99.00" arrivalLane="E1_2" arrivalPos="134.76" arrivalSpeed="12.75" duration="44.00" routeLength="276.28" waitingTime="9.00" waitingCount="2" stopTime="0.00" timeLoss="22.74" rerouteNo="0" devices="tripinfo_E0__0__background.10" vType="background" speedFactor="0.94" vaporized=""/>
    <tripinfo id="-E1__0__background.10" depart="57.00" departLane="-E1_2" departPos="4.60" departSpeed="0.00" departDelay="0.85" arrival="104.00" arrivalLane="E3_2" arrivalPos="113.06" arrivalSpeed="14.94" duration="47.00" routeLength="267.65" waitingTime="12.00" waitingCount="2" stopTime="0.00" timeLoss="27.97" rerouteNo="0" devices="tripinfo_-E1__0__background.10" vType="background" speedFactor="1.11" vaporized=""/>
    <tripinfo id="-E1__1__background.1" depart="73.00" departLane="-E1_1" departPos="4.60" departSpeed="0.00" departDelay="0.59" arrival="105.00" arrivalLane="E3_2" arrivalPos="113.06" arrivalSpeed="14.38" duration="32.00" routeLength="267.65" waitingTime="2.00" waitingCount="1" stopTime="0.00" timeLoss="13.36" rerouteNo="0" devices="tripinfo_-E1__1__background.1" vType="background" speedFactor="1.07" vaporized=""/>
    <tripinfo id="E2__1__ego.0" depart="65.00" departLane="E2_3" departPos="4.60" departSpeed="0.00" departDelay="1.53" arrival="109.00" arrivalLane="-E0_1" arrivalPos="118.28" arrivalSpeed="14.87" duration="44.00" routeLength="232.95" waitingTime="20.00" waitingCount="1" stopTime="0.00" timeLoss="28.93" rerouteNo="0" devices="tripinfo_E2__1__ego.0" vType="ego" speedFactor="1.16" vaporized=""/>
    <tripinfo id="-E3__1__ego.0" depart="61.00" departLane="-E3_1" departPos="4.60" departSpeed="0.00" departDelay="0.97" arrival="110.00" arrivalLane="-E2_2" arrivalPos="107.89" arrivalSpeed="13.89" duration="49.00" routeLength="243.42" waitingTime="22.00" waitingCount="1" stopTime="0.00" timeLoss="31.92" rerouteNo="0" devices="tripinfo_-E3__1__ego.0" vType="ego" speedFactor="1.04" vaporized=""/>
    <tripinfo id="E2__1__background.0" depart="62.00" departLane="E2_3" departPos="4.60" departSpeed="0.00" departDelay="0.28" arrival="110.00" arrivalLane="E3_2" arrivalPos="113.06" arrivalSpeed="13.91" duration="48.00" routeLength="243.41" waitingTime="23.00" waitingCount="1" stopTime="0.00" timeLoss="31.43" rerouteNo="0" devices="tripinfo_E2__1__background.0" vType="background" speedFactor="1.11" vaporized=""/>
    <tripinfo id="-E3__1__background.0" depart="70.00" departLane="-E3_3" departPos="4.60" departSpeed="0.00" departDelay="0.69" arrival="112.00" arrivalLane="-E2_2" arrivalPos="107.89" arrivalSpeed="13.72" duration="42.00" routeLength="243.42" waitingTime="16.00" waitingCount="1" stopTime="0.00" timeLoss="24.50" rerouteNo="0" devices="tripinfo_-E3__1__background.0" vType="background" speedFactor="1.01" vaporized=""/>
    <tripinfo id="E2__1__ego.1" depart="71.00" departLane="E2_1" departPos="4.60" departSpeed="0.00" departDelay="0.83" arrival="114.00" arrivalLane="E3_2" arrivalPos="113.06" arrivalSpeed="10.95" duration="43.00" routeLength="243.41" waitingTime="15.00" waitingCount="1" stopTime="0.00" timeLoss="22.27" rerouteNo="0" devices="tripinfo_E2__1__ego.1" vType="ego" speedFactor="0.88" vaporized=""/>
    <tripinfo id="-E3__1__background.1" depart="72.00" departLane="-E3_3" departPos="4.60" departSpeed="0.00" departDelay="0.74" arrival="114.00" arrivalLane="-E2_2" arrivalPos="107.89" arrivalSpeed="14.13" duration="42.00" routeLength="243.42" waitingTime="14.00" waitingCount="1" stopTime="0.00" timeLoss="24.36" rerouteNo="0" devices="tripinfo_-E3__1__background.1" vType="background" speedFactor="1.02" vaporized=""/>
    <tripinfo id="E2__1__ego.2" depart="73.00" departLane="E2_3" departPos="4.60" departSpeed="0.00" departDelay="0.71" arrival="115.00" arrivalLane="E3_2" arrivalPos="113.06" arrivalSpeed="14.33" duration="42.00" routeLength="243.41" waitingTime="14.00" waitingCount="1" stopTime="0.00" timeLoss="25.24" rerouteNo="0" devices="tripinfo_E2__1__ego.2" vType="ego" speedFactor="1.06" vaporized=""/>
    <tripinfo id="-E3__1__background.2" depart="76.00" departLane="-E3_3" departPos="4.60" departSpeed="0.00" departDelay="0.92" arrival="117.00" arrivalLane="-E2_2" arrivalPos="107.89" arrivalSpeed="11.64" duration="41.00" routeLength="243.42" waitingTime="11.00" waitingCount="1" stopTime="0.00" timeLoss="20.36" rerouteNo="0" devices="tripinfo_-E3__1__background.2" vType="background" speedFactor="0.86" vaporized=""/>
    <tripinfo id="E2__1__background.2" depart="84.00" departLane="E2_2" departPos="4.60" departSpeed="0.00" departDelay="0.84" arrival="117.00" arrivalLane="E3_2" arrivalPos="113.06" arrivalSpeed="12.13" duration="33.00" routeLength="243.41" waitingTime="5.00" waitingCount="1" stopTime="0.00" timeLoss="14.43" rerouteNo="0" devices="tripinfo_E2__1__background.2" vType="background" speedFactor="0.96" vaporized=""/>
    <tripinfo id="-E3__1__background.3" depart="76.00" departLane="-E3_2" departPos="4.60" departSpeed="0.00" departDelay="0.41" arrival="119.00" arrivalLane="-E2_2" arrivalPos="107.89" arrivalSpeed="14.67" duration="43.00" routeLength="243.42" waitingTime="8.00" waitingCount="1" stopTime="0.00" timeLoss="26.00" rerouteNo="0" devices="tripinfo_-E3__1__background.3" vType="background" speedFactor="1.20" vaporized=""/>
    <tripinfo id="E2__1__background.3" depart="86.00" departLane="E2_3" departPos="4.60" departSpeed="0.00" departDelay="0.14" arrival="119.00" arrivalLane="E3_2" arrivalPos="113.06" arrivalSpeed="13.79" duration="33.00" routeLength="243.41" waitingTime="3.00" waitingCount="1" stopTime="0.00" timeLoss="15.17" rerouteNo="0" devices="tripinfo_E2__1__background.3" vType="background" speedFactor="1.03" vaporized=""/>
    <tripinfo id="E2__0__background.3" depart="44.00" departLane="E2_1" departPos="4.60" departSpeed="0.00" departDelay="0.81" arrival="126.00" arrivalLane="E1_2" arrivalPos="134.76" arrivalSpeed="14.38" duration="82.00" routeLength="262.66" waitingTime="54.00" waitingCount="1" stopTime="0.00" timeLoss="63.24" rerouteNo="0" devices="tripinfo_E2__0__background.3" vType="background" speedFactor="1.06" vaporized=""/>
    <tripinfo id="-E3__1__background.4" depart="79.00" departLane="-E3_3" departPos="4.60" departSpeed="0.00" departDelay="0.16" arrival="126.00" arrivalLane="-E0_2" arrivalPos="118.28" arrivalSpeed="13.26" duration="47.00" routeLength="251.36" waitingTime="17.00" waitingCount="1" stopTime="0.00" timeLoss="27.26" rerouteNo="0" devices="tripinfo_-E3__1__background.4" vType="background" speedFactor="0.96" vaporized=""/>
    <tripinfo id="E2__1__background.1" depart="75.00" departLane="E2_1" departPos="4.60" departSpeed="0.00" departDelay="0.99" arrival="129.00" arrivalLane="E1_2" arrivalPos="134.76" arrivalSpeed="12.31" duration="54.00" routeLength="262.66" waitingTime="23.00" waitingCount="1" stopTime="0.00" timeLoss="33.33" rerouteNo="0" devices="tripinfo_E2__1__background.1" vType="background" speedFactor="0.96" vaporized=""/>
    <tripinfo id="-E3__1__background.5" depart="90.00" departLane="-E3_2" departPos="4.60" departSpeed="0.00" departDelay="0.17" arrival="129.00" arrivalLane="-E0_2" arrivalPos="118.28" arrivalSpeed="14.68" duration="39.00" routeLength="251.36" waitingTime="9.00" waitingCount="1" stopTime="0.00" timeLoss="20.89" rerouteNo="0" devices="tripinfo_-E3__1__background.5" vType="background" speedFactor="1.11" vaporized=""/>
    <tripinfo id="E0__1__background.2" depart="87.00" departLane="E0_3" departPos="4.60" departSpeed="0.00" departDelay="0.60" arrival="133.00" arrivalLane="-E2_2" arrivalPos="107.89" arrivalSpeed="13.86" duration="46.00" routeLength="245.98" waitingTime="18.00" waitingCount="1" stopTime="0.00" timeLoss="28.21" rerouteNo="0" devices="tripinfo_E0__1__background.2" vType="background" speedFactor="1.07" vaporized=""/>
    <tripinfo id="E0__1__background.1" depart="87.00" departLane="E0_1" departPos="4.60" departSpeed="0.00" departDelay="0.77" arrival="135.00" arrivalLane="-E2_2" arrivalPos="107.89" arrivalSpeed="13.91" duration="48.00" routeLength="245.98" waitingTime="16.00" waitingCount="1" stopTime="0.00" timeLoss="30.44" rerouteNo="0" devices="tripinfo_E0__1__background.1" vType="background" speedFactor="1.10" vaporized=""/>
    <tripinfo id="-E3__1__background.7" depart="104.00" departLane="-E3_1" departPos="4.60" departSpeed="0.00" departDelay="0.72" arrival="140.00" arrivalLane="-E2_2" arrivalPos="107.89" arrivalSpeed="13.75" duration="36.00" routeLength="243.42" waitingTime="9.00" waitingCount="1" stopTime="0.00" timeLoss="18.88" rerouteNo="0" devices="tripinfo_-E3__1__background.7" vType="background" speedFactor="1.18" vaporized=""/>
    <tripinfo id="E2__1__background.4" depart="88.00" departLane="E2_3" departPos="4.60" departSpeed="0.00" departDelay="0.65" arrival="141.00" arrivalLane="E3_2" arrivalPos="113.06" arrivalSpeed="12.21" duration="53.00" routeLength="243.41" waitingTime="17.00" waitingCount="2" stopTime="0.00" timeLoss="33.60" rerouteNo="0" devices="tripinfo_E2__1__background.4" vType="background" speedFactor="0.93" vaporized=""/>
    <tripinfo id="-E3__1__background.8" depart="106.00" departLane="-E3_3" departPos="4.60" departSpeed="0.00" departDelay="0.10" arrival="142.00" arrivalLane="E1_1" arrivalPos="134.76" arrivalSpeed="11.44" duration="36.00" routeLength="254.61" waitingTime="5.00" waitingCount="1" stopTime="0.00" timeLoss="14.39" rerouteNo="0" devices="tripinfo_-E3__1__background.8" vType="background" speedFactor="0.90" vaporized=""/>
    <tripinfo id="-E3__1__ego.1" depart="110.00" departLane="-E3_3" departPos="4.60" departSpeed="0.00" departDelay="0.86" arrival="142.00" arrivalLane="-E2_2" arrivalPos="107.89" arrivalSpeed="12.98" duration="32.00" routeLength="243.42" waitingTime="4.00" waitingCount="1" stopTime="0.00" timeLoss="12.89" rerouteNo="0" devices="tripinfo_-E3__1__ego.1" vType="ego" speedFactor="0.94" vaporized=""/>
    <tripinfo id="E2__1__background.5" depart="96.00" departLane="E2_3" departPos="4.60" departSpeed="0.00" departDelay="0.30" arrival="143.00" arrivalLane="E3_2" arrivalPos="113.06" arrivalSpeed="12.39" duration="47.00" routeLength="243.41" waitingTime="14.00" waitingCount="1" stopTime="0.00" timeLoss="28.12" rerouteNo="0" devices="tripinfo_E2__1__background.5" vType="background" speedFactor="0.97" vaporized=""/>
    <tripinfo id="E2__1__ego.3" depart="99.00" departLane="E2_2" departPos="4.60" departSpeed="0.00" departDelay="1.15" arrival="144.00" arrivalLane="E3_2" arrivalPos="113.06" arrivalSpeed="12.58" duration="45.00" routeLength="243.41" waitingTime="14.00" waitingCount="1" stopTime="0.00" timeLoss="27.12" rerouteNo="0" devices="tripinfo_E2__1__ego.3" vType="ego" speedFactor="0.99" vaporized=""/>