<?xml version="1.0" encoding="UTF-8"?>

<!-- generated on 2023-12-01 21:42:30 by Eclipse SUMO GUI Version 1.18.0
<configuration xmlns:xsi="http://www.w3.org/2001/XMLSchema-instance" xsi:noNamespaceSchemaLocation="http://sumo.dlr.de/xsd/sumoConfiguration.xsd">

    <input>
        <net-file value="/home/wmn/TrafficAlpha/TSC-LLM/ConventionalMethods/../TSCScenario/4way/env/4way.net.xml"/>
        <route-files value="/home/wmn/TrafficAlpha/TSC-LLM/ConventionalMethods/../TSCScenario/4way/env/../routes/vehicle.rou.xml"/>
        <additional-files value="/home/wmn/TrafficAlpha/TSC-LLM/ConventionalMethods/../TSCScenario/4way/env/../add/tls.add.xml,/home/wmn/TrafficAlpha/TSC-LLM/ConventionalMethods/../TSCScenario/4way/env/ ../add/e2.add.xml"/>
    </input>

    <output>
        <tripinfo-output value="/home/wmn/TrafficAlpha/TSC-LLM/ConventionalMethods/./4way_FT.tripinfo.xml"/>
    </output>

    <processing>
        <time-to-teleport value="-1"/>
        <waiting-time-memory value="10000"/>
        <max-depart-delay value="100000"/>
    </processing>

    <report>
        <no-warnings value="true"/>
        <no-step-log value="true"/>
    </report>

    <traci_server>
        <remote-port value="33037"/>
    </traci_server>

    <random_number>
        <random value="true"/>
    </random_number>

    <gui_only>
        <quit-on-end value="true"/>
        <start value="true"/>
    </gui_only>

</configuration>
-->

<tripinfos xmlns:xsi="http://www.w3.org/2001/XMLSchema-instance" xsi:noNamespaceSchemaLocation="http://sumo.dlr.de/xsd/tripinfo_file.xsd">
    <tripinfo id="E0__0__background.0" depart="4.00" departLane="E0_2" departPos="4.60" departSpeed="0.00" departDelay="0.42" arrival="29.00" arrivalLane="E3_1" arrivalPos="113.06" arrivalSpeed="11.84" duration="25.00" routeLength="238.81" waitingTime="0.00" waitingCount="0" stopTime="0.00" timeLoss="4.46" rerouteNo="0" devices="tripinfo_E0__0__background.0" vType="background" speedFactor="0.93" vaporized=""/>
    <tripinfo id="-E1__0__background.1" depart="5.00" departLane="-E1_3" departPos="4.60" departSpeed="0.00" departDelay="0.84" arrival="30.00" arrivalLane="-E2_1" arrivalPos="107.89" arrivalSpeed="12.87" duration="25.00" routeLength="250.13" waitingTime="0.00" waitingCount="0" stopTime="0.00" timeLoss="5.40" rerouteNo="0" devices="tripinfo_-E1__0__background.1" vType="background" speedFactor="0.99" vaporized=""/>
    <tripinfo id="-E1__0__background.2" depart="7.00" departLane="-E1_2" departPos="4.60" departSpeed="0.00" departDelay="1.32" arrival="30.00" arrivalLane="-E0_2" arrivalPos="118.28" arrivalSpeed="14.46" duration="23.00" routeLength="276.29" waitingTime="0.00" waitingCount="0" stopTime="0.00" timeLoss="3.53" rerouteNo="0" devices="tripinfo_-E1__0__background.2" vType="background" speedFactor="1.07" vaporized=""/>
    <tripinfo id="-E1__0__ego.0" depart="8.00" departLane="-E1_1" departPos="4.60" departSpeed="0.00" departDelay="0.29" arrival="32.00" arrivalLane="-E2_1" arrivalPos="107.89" arrivalSpeed="13.92" duration="24.00" routeLength="250.13" waitingTime="0.00" waitingCount="0" stopTime="0.00" timeLoss="6.02" rerouteNo="0" devices="tripinfo_-E1__0__ego.0" vType="ego" speedFactor="1.05" vaporized=""/>
    <tripinfo id="-E1__0__ego.1" depart="11.00" departLane="-E1_1" departPos="4.60" departSpeed="0.00" departDelay="0.18" arrival="34.00" arrivalLane="-E2_1" arrivalPos="107.89" arrivalSpeed="15.81" duration="23.00" routeLength="250.13" waitingTime="0.00" waitingCount="0" stopTime="0.00" timeLoss="6.66" rerouteNo="0" devices="tripinfo_-E1__0__ego.1" vType="ego" speedFactor="1.20" vaporized=""/>
    <tripinfo id="E0__0__background.1" depart="11.00" departLane="E0_1" departPos="4.60" departSpeed="0.00" departDelay="0.12" arrival="34.00" arrivalLane="E3_1" arrivalPos="113.06" arrivalSpeed="14.40" duration="23.00" routeLength="238.81" waitingTime="0.00" waitingCount="0" stopTime="0.00" timeLoss="5.39" rerouteNo="0" devices="tripinfo_E0__0__background.1" vType="background" speedFactor="1.18" vaporized=""/>
    <tripinfo id="E0__0__background.2" depart="12.00" departLane="E0_2" departPos="4.60" departSpeed="0.00" departDelay="0.97" arrival="35.00" arrivalLane="E1_2" arrivalPos="134.76" arrivalSpeed="14.63" duration="23.00" routeLength="276.28" waitingTime="0.00" waitingCount="0" stopTime="0.00" timeLoss="4.02" rerouteNo="0" devices="tripinfo_E0__0__background.2" vType="background" speedFactor="1.11" vaporized=""/>
    <tripinfo id="E0__0__ego.0" depart="16.00" departLane="E0_2" departPos="4.60" departSpeed="0.00" departDelay="0.07" arrival="39.00" arrivalLane="E3_1" arrivalPos="113.06" arrivalSpeed="14.23" duration="23.00" routeLength="238.81" waitingTime="0.00" waitingCount="0" stopTime="0.00" timeLoss="6.02" rerouteNo="0" devices="tripinfo_E0__0__ego.0" vType="ego" speedFactor="1.10" vaporized=""/>
    <tripinfo id="-E1__0__background.0" depart="1.00" departLane="-E1_3" departPos="4.60" departSpeed="0.00" departDelay="0.16" arrival="46.00" arrivalLane="E3_2" arrivalPos="113.06" arrivalSpeed="13.01" duration="45.00" routeLength="267.65" waitingTime="15.00" waitingCount="1" stopTime="0.00" timeLoss="23.93" rerouteNo="0" devices="tripinfo_-E1__0__background.0" vType="background" speedFactor="0.96" vaporized=""/>
    <tripinfo id="E0__0__background.3" depart="18.00" departLane="E0_3" departPos="4.60" departSpeed="0.00" departDelay="0.63" arrival="47.00" arrivalLane="-E2_2" arrivalPos="107.89" arrivalSpeed="13.60" duration="29.00" routeLength="245.98" waitingTime="0.00" waitingCount="0" stopTime="0.00" timeLoss="10.02" rerouteNo="0" devices="tripinfo_E0__0__background.3" vType="background" speedFactor="1.01" vaporized=""/>
    <tripinfo id="-E1__0__background.7" depart="47.00" departLane="-E1_2" departPos="4.60" departSpeed="0.00" departDelay="0.98" arrival="76.00" arrivalLane="E3_2" arrivalPos="113.06" arrivalSpeed="11.83" duration="29.00" routeLength="267.65" waitingTime="0.00" waitingCount="0" stopTime="0.00" timeLoss="6.43" rerouteNo="0" devices="tripinfo_-E1__0__background.7" vType="background" speedFactor="0.92" vaporized=""/>
    <tripinfo id="-E3__0__ego.0" depart="7.00" departLane="-E3_2" departPos="4.60" departSpeed="0.00" departDelay="0.46" arrival="78.00" arrivalLane="-E2_2" arrivalPos="107.89" arrivalSpeed="14.32" duration="71.00" routeLength="243.42" waitingTime="44.00" waitingCount="2" stopTime="0.00" timeLoss="54.61" rerouteNo="0" devices="tripinfo_-E3__0__ego.0" vType="ego" speedFactor="1.07" vaporized=""/>
    <tripinfo id="E2__0__background.0" depart="6.00" departLane="E2_2" departPos="4.60" departSpeed="0.00" departDelay="0.01" arrival="80.00" arrivalLane="E3_2" arrivalPos="113.06" arrivalSpeed="13.02" duration="74.00" routeLength="243.41" waitingTime="45.00" waitingCount="1" stopTime="0.00" timeLoss="55.41" rerouteNo="0" devices="tripinfo_E2__0__background.0" vType="background" speedFactor="0.97" vaporized=""/>
    <tripinfo id="-E3__0__background.3" depart="27.00" departLane="-E3_2" departPos="4.60" departSpeed="0.00" departDelay="0.05" arrival="80.00" arrivalLane="E1_1" arrivalPos="134.76" arrivalSpeed="12.70" duration="53.00" routeLength="254.61" waitingTime="24.00" waitingCount="1" stopTime="0.00" timeLoss="32.95" rerouteNo="0" devices="tripinfo_-E3__0__background.3" vType="background" speedFactor="0.98" vaporized=""/>
    <tripinfo id="-E3__0__background.0" depart="13.00" departLane="-E3_2" departPos="4.60" departSpeed="0.00" departDelay="0.68" arrival="81.00" arrivalLane="-E2_2" arrivalPos="107.89" arrivalSpeed="13.04" duration="68.00" routeLength="243.42" waitingTime="40.00" waitingCount="1" stopTime="0.00" timeLoss="50.70" rerouteNo="0" devices="tripinfo_-E3__0__background.0" vType="background" speedFactor="1.03" vaporized=""/>
    <tripinfo id="E2__0__ego.0" depart="8.00" departLane="E2_3" departPos="4.60" departSpeed="0.00" departDelay="0.05" arrival="82.00" arrivalLane="E3_2" arrivalPos="113.06" arrivalSpeed="14.20" duration="74.00" routeLength="243.41" waitingTime="46.00" waitingCount="1" stopTime="0.00" timeLoss="56.42" rerouteNo="0" devices="tripinfo_E2__0__ego.0" vType="ego" speedFactor="1.04" vaporized=""/>
    <tripinfo id="-E3__0__background.1" depart="20.00" departLane="-E3_1" departPos="4.60" departSpeed="0.00" departDelay="0.72" arrival="84.00" arrivalLane="-E2_2" arrivalPos="107.89" arrivalSpeed="12.21" duration="64.00" routeLength="243.42" waitingTime="35.00" waitingCount="1" stopTime="0.00" timeLoss="44.61" rerouteNo="0" devices="tripinfo_-E3__0__background.1" vType="background" speedFactor="0.92" vaporized=""/>
    <tripinfo id="E2__0__background.1" depart="26.00" departLane="E2_1" departPos="4.60" departSpeed="0.00" departDelay="0.78" arrival="84.00" arrivalLane="E3_2" arrivalPos="113.06" arrivalSpeed="12.11" duration="58.00" routeLength="243.41" waitingTime="30.00" waitingCount="1" stopTime="0.00" timeLoss="39.15" rerouteNo="0" devices="tripinfo_E2__0__background.1" vType="background" speedFactor="0.94" vaporized=""/>
    <tripinfo id="-E3__0__background.2" depart="21.00" departLane="-E3_2" departPos="4.60" departSpeed="0.00" departDelay="0.68" arrival="86.00" arrivalLane="-E2_2" arrivalPos="107.89" arrivalSpeed="11.43" duration="65.00" routeLength="243.42" waitingTime="33.00" waitingCount="1" stopTime="0.00" timeLoss="45.32" rerouteNo="0" devices="tripinfo_-E3__0__background.2" vType="background" speedFactor="0.91" vaporized=""/>
    <tripinfo id="E2__0__background.2" depart="29.00" departLane="E2_2" departPos="4.60" departSpeed="0.00" departDelay="0.71" arrival="86.00" arrivalLane="E3_2" arrivalPos="113.06" arrivalSpeed="14.38" duration="57.00" routeLength="243.41" waitingTime="28.00" waitingCount="1" stopTime="0.00" timeLoss="40.11" rerouteNo="0" devices="tripinfo_E2__0__background.2" vType="background" speedFactor="1.13" vaporized=""/>
    <tripinfo id="E2__0__ego.1" depart="34.00" departLane="E2_3" departPos="4.60" departSpeed="0.00" departDelay="0.34" arrival="88.00" arrivalLane="E3_2" arrivalPos="113.06" arrivalSpeed="13.95" duration="54.00" routeLength="243.41" waitingTime="24.00" waitingCount="1" stopTime="0.00" timeLoss="35.98" rerouteNo="0" devices="tripinfo_E2__0__ego.1" vType="ego" speedFactor="1.02" vaporized=""/>
    <tripinfo id="-E3__0__background.4" depart="42.00" departLane="-E3_3" departPos="4.60" departSpeed="0.00" departDelay="0.70" arrival="88.00" arrivalLane="-E2_2" arrivalPos="107.89" arrivalSpeed="12.62" duration="46.00" routeLength="243.42" waitingTime="15.00" waitingCount="1" stopTime="0.00" timeLoss="27.05" rerouteNo="0" devices="tripinfo_-E3__0__background.4" vType="background" speedFactor="0.96" vaporized=""/>
    <tripinfo id="E2__1__ego.0" depart="65.00" departLane="E2_1" departPos="4.60" departSpeed="0.00" departDelay="1.53" arrival="88.00" arrivalLane="-E0_1" arrivalPos="118.28" arrivalSpeed="13.41" duration="23.00" routeLength="232.95" waitingTime="0.00" waitingCount="0" stopTime="0.00" timeLoss="5.35" rerouteNo="0" devices="tripinfo_E2__1__ego.0" vType="ego" speedFactor="0.99" vaporized=""/>
    <tripinfo id="E2__0__background.4" depart="49.00" departLane="E2_3" departPos="4.60" departSpeed="0.00" departDelay="0.86" arrival="89.00" arrivalLane="E3_2" arrivalPos="113.06" arrivalSpeed="14.51" duration="40.00" routeLength="243.41" waitingTime="12.00" waitingCount="1" stopTime="0.00" timeLoss="23.47" rerouteNo="0" devices="tripinfo_E2__0__background.4" vType="background" speedFactor="1.11" vaporized=""/>
    <tripinfo id="-E3__1__ego.0" depart="61.00" departLane="-E3_2" departPos="4.60" departSpeed="0.00" departDelay="0.97" arrival="90.00" arrivalLane="-E2_2" arrivalPos="107.89" arrivalSpeed="13.30" duration="29.00" routeLength="243.42" waitingTime="0.00" waitingCount="0" stopTime="0.00" timeLoss="10.60" rerouteNo="0" devices="tripinfo_-E3__1__ego.0" vType="ego" speedFactor="1.00" vaporized=""/>
    <tripinfo id="E2__1__background.0" depart="62.00" departLane="E2_3" departPos="4.60" departSpeed="0.00" departDelay="0.28" arrival="91.00" arrivalLane="E3_2" arrivalPos="113.06" arrivalSpeed="14.09" duration="29.00" routeLength="243.41" waitingTime="1.00" waitingCount="1" stopTime="0.00" timeLoss="12.10" rerouteNo="0" devices="tripinfo_E2__1__background.0" vType="background" speedFactor="1.11" vaporized=""/>
    <tripinfo id="-E3__1__background.0" depart="70.00" departLane="-E3_3" departPos="4.60" departSpeed="0.00" departDelay="0.69" arrival="91.00" arrivalLane="-E2_2" arrivalPos="107.89" arrivalSpeed="14.30" duration="21.00" routeLength="243.42" waitingTime="0.00" waitingCount="0" stopTime="0.00" timeLoss="4.56" rerouteNo="0" devices="tripinfo_-E3__1__background.0" vType="background" speedFactor="1.14" vaporized=""/>
    <tripinfo id="E2__1__ego.1" depart="71.00" departLane="E2_2" departPos="4.60" departSpeed="0.00" departDelay="0.83" arrival="93.00" arrivalLane="E3_2" arrivalPos="113.06" arrivalSpeed="12.73" duration="22.00" routeLength="243.41" waitingTime="0.00" waitingCount="0" stopTime="0.00" timeLoss="3.71" rerouteNo="0" devices="tripinfo_E2__1__ego.1" vType="ego" speedFactor="0.97" vaporized=""/>
    <tripinfo id="E2__1__ego.2" depart="73.00" departLane="E2_1" departPos="4.60" departSpeed="0.00" departDelay="0.71" arrival="95.00" arrivalLane="E3_2" arrivalPos="113.06" arrivalSpeed="13.39" duration="22.00" routeLength="243.41" waitingTime="0.00" waitingCount="0" stopTime="0.00" timeLoss="4.48" rerouteNo="0" devices="tripinfo_E2__1__ego.2" vType="ego" speedFactor="1.03" vaporized=""/>
    <tripinfo id="-E3__1__background.1" depart="72.00" departLane="-E3_1" departPos="4.60" departSpeed="0.00" departDelay="0.74" arrival="97.00" arrivalLane="-E2_2" arrivalPos="107.89" arrivalSpeed="12.25" duration="25.00" routeLength="243.42" waitingTime="0.00" waitingCount="0" stopTime="0.00" timeLoss="5.05" rerouteNo="0" devices="tripinfo_-E3__1__background.1" vType="background" speedFactor="0.90" vaporized=""/>
    <tripinfo id="-E3__1__background.2" depart="76.00" departLane="-E3_2" departPos="4.60" departSpeed="0.00" departDelay="0.92" arrival="100.00" arrivalLane="-E2_2" arrivalPos="107.89" arrivalSpeed="11.92" duration="24.00" routeLength="243.42" waitingTime="0.00" waitingCount="0" stopTime="0.00" timeLoss="3.13" rerouteNo="0" devices="tripinfo_-E3__1__background.2" vType="background" speedFactor="0.86" vaporized=""/>
    <tripinfo id="-E3__1__background.3" depart="76.00" departLane="-E3_1" departPos="4.60" departSpeed="0.00" departDelay="0.41" arrival="104.00" arrivalLane="-E2_2" arrivalPos="107.89" arrivalSpeed="9.98" duration="28.00" routeLength="243.42" waitingTime="0.00" waitingCount="0" stopTime="0.00" timeLoss="5.93" rerouteNo="0" devices="tripinfo_-E3__1__background.3" vType="background" speedFactor="0.81" vaporized=""/>
    <tripinfo id="E2__1__background.2" depart="84.00" departLane="E2_1" departPos="4.60" departSpeed="0.00" departDelay="0.84" arrival="106.00" arrivalLane="E3_2" arrivalPos="113.06" arrivalSpeed="12.64" duration="22.00" routeLength="243.41" waitingTime="0.00" waitingCount="0" stopTime="0.00" timeLoss="3.44" rerouteNo="0" devices="tripinfo_E2__1__background.2" vType="background" speedFactor="0.97" vaporized=""/>
    <tripinfo id="-E3__0__ego.1" depart="7.00" departLane="-E3_1" departPos="4.60" departSpeed="0.00" departDelay="0.20" arrival="113.00" arrivalLane="-E0_2" arrivalPos="118.28" arrivalSpeed="14.52" duration="106.00" routeLength="251.36" waitingTime="78.00" waitingCount="1" stopTime="0.00" timeLoss="88.86" rerouteNo="0" devices="tripinfo_-E3__0__ego.1" vType="ego" speedFactor="1.12" vaporized=""/>
    <tripinfo id="E2__0__background.3" depart="44.00" departLane="E2_2" departPos="4.60" departSpeed="0.00" departDelay="0.81" arrival="116.00" arrivalLane="E1_2" arrivalPos="134.76" arrivalSpeed="11.05" duration="72.00" routeLength="262.66" waitingTime="41.00" waitingCount="1" stopTime="0.00" timeLoss="49.14" rerouteNo="0" devices="tripinfo_E2__0__background.3" vType="background" speedFactor="0.85" vaporized=""/>
    <tripinfo id="-E3__1__background.4" depart="80.00" departLane="-E3_3" departPos="4.60" departSpeed="0.00" departDelay="1.16" arrival="116.00" arrivalLane="-E0_2" arrivalPos="118.28" arrivalSpeed="12.88" duration="36.00" routeLength="251.36" waitingTime="6.00" waitingCount="1" stopTime="0.00" timeLoss="15.91" rerouteNo="0" devices="tripinfo_-E3__1__background.4" vType="background" speedFactor="0.96" vaporized=""/>
    <tripinfo id="E2__1__background.1" depart="75.00" departLane="E2_3" departPos="4.60" departSpeed="0.00" departDelay="0.99" arrival="118.00" arrivalLane="E1_2" arrivalPos="134.76" arrivalSpeed="13.21" duration="43.00" routeLength="262.66" waitingTime="10.00" waitingCount="1" stopTime="0.00" timeLoss="24.00" rerouteNo="0" devices="tripinfo_E2__1__background.1" vType="background" speedFactor="1.04" vaporized=""/>
    <tripinfo id="-E3__1__background.5" depart="90.00" departLane="-E3_1" departPos="4.60" departSpeed="0.00" departDelay="0.17" arrival="118.00" arrivalLane="-E0_2" arrivalPos="118.28" arrivalSpeed="14.16" duration="28.00" routeLength="251.36" waitingTime="0.00" waitingCount="0" stopTime="0.00" timeLoss="9.21" rerouteNo="0" devices="tripinfo_-E3__1__background.5" vType="background" speedFactor="1.05" vaporized=""/>
    <tripinfo id="-E3__1__background.6" depart="103.00" departLane="-E3_3" departPos="4.60" departSpeed="0.00" departDelay="0.13" arrival="128.00" arrivalLane="-E0_2" arrivalPos="118.28" arrivalSpeed="12.33" duration="25.00" routeLength="251.36" waitingTime="0.00" waitingCount="0" stopTime="0.00" timeLoss="4.69" rerouteNo="0" devices="tripinfo_-E3__1__background.6" vType="background" speedFactor="0.94" vaporized=""/>
    <tripinfo id="-E1__0__background.3" depart="16.00" departLane="-E1_2" departPos="4.60" departSpeed="0.00" departDelay="0.32" arrival="145.00" arrivalLane="-E2_1" arrivalPos="107.89" arrivalSpeed="11.04" duration="129.00" routeLength="250.13" waitingTime="99.00" waitingCount="1" stopTime="0.00" timeLoss="107.20" rerouteNo="0" devices="tripinfo_-E1__0__background.3" vType="background" speedFactor="0.86" vaporized=""/>
    <tripinfo id="-E1__0__background.5" depart="24.00" departLane="-E1_1" departPos="4.60" departSpeed="0.00" departDelay="0.65" arrival="145.00" arrivalLane="-E0_2" arrivalPos="118.28" arrivalSpeed="14.38" duration="121.00" routeLength="276.29" waitingTime="92.00" waitingCount="1" stopTime="0.00" timeLoss="101.95" rerouteNo="0" devices="tripinfo_-E1__0__background.5" vType="background" speedFactor="1.12" vaporized=""/>
    <tripinfo id="E0__0__ego.1" depart="41.00" departLane="E0_1" departPos="4.60" departSpeed="0.00" departDelay="0.46" arrival="146.00" arrivalLane="E3_1" arrivalPos="113.06" arrivalSpeed="11.20" duration="105.00" routeLength="238.81" waitingTime="76.00" waitingCount="1" stopTime="0.00" timeLoss="83.36" rerouteNo="0" devices="tripinfo_E0__0__ego.1" vType="ego" speedFactor="0.84" vaporized=""/>
    <tripinfo id="-E1__0__background.4" depart="18.00" departLane="-E1_3" departPos="4.60" departSpeed="0.00" departDelay="1.25" arrival="147.00" arrivalLane="-E2_1" arrivalPos="107.89" arrivalSpeed="13.04" duration="129.00" routeLength="250.13" waitingTime="96.00" waitingCount="1" stopTime="0.00" timeLoss="109.00" rerouteNo="0" devices="tripinfo_-E1__0__background.4" vType="background" speedFactor="0.95" vaporized=""/>
    <tripinfo id="-E1__0__ego.2" depart="36.00" departLane="-E1_2" departPos="4.60" departSpeed="0.00" departDelay="0.09" arrival="147.00" arrivalLane="-E0_2" arrivalPos="118.28" arrivalSpeed="13.24" duration="111.00" routeLength="276.29" waitingTime="80.00" waitingCount="1" stopTime="0.00" timeLoss="91.73" rerouteNo="0" devices="tripinfo_-E1__0__ego.2" vType="ego" speedFactor="1.04" vaporized=""/>
    <tripinfo id="E0__0__background.4" depart="26.00" departLane="E0_1" departPos="4.60" departSpeed="0.00" departDelay="0.10" arrival="148.00" arrivalLane="E1_2" arrivalPos="134.76" arrivalSpeed="11.40" duration="122.00" routeLength="276.28" waitingTime="90.00" waitingCount="1" stopTime="0.00" timeLoss="99.29" rerouteNo="0" devices="tripinfo_E0__0__background.4" vType="background" speedFactor="0.89" vaporized=""/>
    <tripinfo id="E0__0__ego.3" depart="53.00" departLane="E0_2" departPos="4.60" departSpeed="0.00" departDelay="0.87" arrival="148.00" arrivalLane="E3_1" arrivalPos="113.06" arrivalSpeed="14.16" duration="95.00" routeLength="238.81" waitingTime="66.00" waitingCount="1" stopTime="0.00" timeLoss="79.26" rerouteNo="0" devices="tripinfo_E0__0__ego.3" vType="ego" speedFactor="1.18" vaporized=""/>
    <tripinfo id="-E1__0__background.6" depart="47.00" departLane="-E1_3" departPos="4.60" departSpeed="0.00" departDelay="0.98" arrival="149.00" arrivalLane="-E0_2" arrivalPos="118.28" arrivalSpeed="14.66" duration="102.00" routeLength="276.29" waitingTime="72.00" waitingCount="1" stopTime="0.00" timeLoss="83.06" rerouteNo="0" devices="tripinfo_-E1__0__background.6" vType="background" speedFactor="1.14" vaporized=""/>
    <tripinfo id="E0__1__background.0" depart="65.00" departLane="E0_2" departPos="4.60" departSpeed="0.00" departDelay="0.46" arrival="149.00" arrivalLane="E3_1" arrivalPos="113.06" arrivalSpeed="12.97" duration="84.00" routeLength="238.81" waitingTime="56.00" waitingCount="1" stopTime="0.00" timeLoss="66.31" rerouteNo="0" devices="tripinfo_E0__1__background.0" vType="background" speedFactor="1.01" vaporized=""/>
    <tripinfo id="-E1__1__ego.1" depart="77.00" departLane="-E1_1" departPos="4.60" departSpeed="0.00" departDelay="0.54" arrival="149.00" arrivalLane="-E2_1" arrivalPos="107.89" arrivalSpeed="11.90" duration="72.00" routeLength="250.13" waitingTime="41.00" waitingCount="1" stopTime="0.00" timeLoss="51.83" rerouteNo="0" devices="tripinfo_-E1__1__ego.1" vType="ego" speedFactor="0.94" vaporized=""/>
    <tripinfo id="E0__0__background.6" depart="29.00" departLane="E0_3" departPos="4.60" departSpeed="0.00" departDelay="0.21" arrival="150.00" arrivalLane="E1_2" arrivalPos="134.76" arrivalSpeed="13.70" duration="121.00" routeLength="276.28" waitingTime="88.00" waitingCount="1" stopTime="0.00" timeLoss="100.49" rerouteNo="0" devices="tripinfo_E0__0__background.6" vType="background" speedFactor="1.01" vaporized=""/>
    <tripinfo id="-E1__0__ego.3" depart="49.00" departLane="-E1_3" departPos="4.60" departSpeed="0.00" departDelay="0.77" arrival="151.00" arrivalLane="-E0_2" arrivalPos="118.28" arrivalSpeed="16.26" duration="102.00" routeLength="276.29" waitingTime="70.00" waitingCount="1" stopTime="0.00" timeLoss="84.88" rerouteNo="0" devices="tripinfo_-E1__0__ego.3" vType="ego" speedFactor="1.22" vaporized=""/>
    <tripinfo id="E0__0__background.5" depart="27.00" departLane="E0_2" departPos="4.60" departSpeed="0.00" departDelay="0.30" arrival="152.00" arrivalLane="E1_2" arrivalPos="134.76" arrivalSpeed="13.22" duration="125.00" routeLength="276.28" waitingTime="88.00" waitingCount="2" stopTime="0.00" timeLoss="103.67" rerouteNo="0" devices="tripinfo_E0__0__background.5" vType="background" speedFactor="0.98" vaporized=""/>
    <tripinfo id="E0__1__background.4" depart="120.00" departLane="E0_1" departPos="4.60" departSpeed="0.00" departDelay="0.22" arrival="152.00" arrivalLane="E3_1" arrivalPos="113.06" arrivalSpeed="13.14" duration="32.00" routeLength="238.81" waitingTime="3.00" waitingCount="1" stopTime="0.00" timeLoss="13.11" rerouteNo="0" devices="tripinfo_E0__1__background.4" vType="background" speedFactor="0.99" vaporized=""/>
    <tripinfo id="E0__0__background.7" depart="37.00" departLane="E0_1" departPos="4.60" departSpeed="0.00" departDelay="0.21" arrival="154.00" arrivalLane="E1_2" arrivalPos="134.76" arrivalSpeed="11.61" duration="117.00" routeLength="276.28" waitingTime="85.00" waitingCount="1" stopTime="0.00" timeLoss="95.15" rerouteNo="0" devices="tripinfo_E0__0__background.7" vType="background" speedFactor="0.93" vaporized=""/>
    <tripinfo id="-E1__0__background.9" depart="55.00" departLane="-E1_3" departPos="4.60" departSpeed="0.00" departDelay="1.55" arrival="154.00" arrivalLane="-E0_2" arrivalPos="118.28" arrivalSpeed="12.41" duration="99.00" routeLength="276.29" waitingTime="67.00" waitingCount="1" stopTime="0.00" timeLoss="77.78" rerouteNo="0" devices="tripinfo_-E1__0__background.9" vType="background" speedFactor="0.97" vaporized=""/>
    <tripinfo id="-E1__1__ego.0" depart="62.00" departLane="-E1_1" departPos="4.60" departSpeed="0.00" departDelay="0.46" arrival="155.00" arrivalLane="-E0_2" arrivalPos="118.28" arrivalSpeed="12.51" duration="93.00" routeLength="276.29" waitingTime="61.00" waitingCount="1" stopTime="0.00" timeLoss="72.69" rerouteNo="0" devices="tripinfo_-E1__1__ego.0" vType="ego" speedFactor="0.98" vaporized=""/>
    <tripinfo id="E0__0__background.8" depart="42.00" departLane="E0_3" departPos="4.60" departSpeed="0.00" departDelay="1.15" arrival="158.00" arrivalLane="E1_2" arrivalPos="134.76" arrivalSpeed="10.71" duration="116.00" routeLength="276.28" waitingTime="79.00" waitingCount="1" stopTime="0.00" timeLoss="91.36" rerouteNo="0" devices="tripinfo_E0__0__background.8" vType="background" speedFactor="0.83" vaporized=""/>
    <tripinfo id="-E1__1__background.0" depart="64.00" departLane="-E1_3" departPos="4.60" departSpeed="0.00" departDelay="0.57" arrival="158.00" arrivalLane="-E0_2" arrivalPos="118.28" arrivalSpeed="12.74" duration="94.00" routeLength="276.29" waitingTime="60.00" waitingCount="1" stopTime="0.00" timeLoss="72.03" rerouteNo="0" devices="tripinfo_-E1__1__background.0" vType="background" speedFactor="0.94" vaporized=""/>
    <tripinfo id="E0__0__background.9" depart="45.00" departLane="E0_1" departPos="4.60" departSpeed="0.00" departDelay="0.54" arrival="160.00" arrivalLane="E1_2" arrivalPos="134.76" arrivalSpeed="11.48" duration="115.00" routeLength="276.28" waitingTime="79.00" waitingCount="1" stopTime="0.00" timeLoss="91.67" rerouteNo="0" devices="tripinfo_E0__0__background.9" vType="background" speedFactor="0.88" vaporized=""/>
    <tripinfo id="E0__0__ego.2" depart="48.00" departLane="E0_1" departPos="4.60" departSpeed="0.00" departDelay="0.08" arrival="161.00" arrivalLane="E1_2" arrivalPos="134.76" arrivalSpeed="13.18" duration="113.00" routeLength="276.28" waitingTime="78.00" waitingCount="1" stopTime="0.00" timeLoss="92.54" rerouteNo="0" devices="tripinfo_E0__0__ego.2" vType="ego" speedFactor="0.98" vaporized=""/>
    <tripinfo id="-E1__1__background.2" depart="74.00" departLane="-E1_1" departPos="4.60" departSpeed="0.00" departDelay="0.33" arrival="161.00" arrivalLane="-E0_2" arrivalPos="118.28" arrivalSpeed="10.92" duration="87.00" routeLength="276.29" waitingTime="53.00" waitingCount="1" stopTime="0.00" timeLoss="62.61" rerouteNo="0" devices="tripinfo_-E1__1__background.2" vType="background" speedFactor="0.84" vaporized=""/>
    <tripinfo id="-E1__1__background.3" depart="77.00" departLane="-E1_2" departPos="4.60" departSpeed="0.00" departDelay="0.27" arrival="162.00" arrivalLane="-E0_2" arrivalPos="118.28" arrivalSpeed="13.74" duration="85.00" routeLength="276.29" waitingTime="50.00" waitingCount="1" stopTime="0.00" timeLoss="64.66" rerouteNo="0" devices="tripinfo_-E1__1__background.3" vType="background" speedFactor="0.99" vaporized=""/>
    <tripinfo id="E0__0__background.10" depart="55.00" departLane="E0_3" departPos="4.60" departSpeed="0.00" departDelay="0.06" arrival="163.00" arrivalLane="E1_2" arrivalPos="134.76" arrivalSpeed="14.40" duration="108.00" routeLength="276.28" waitingTime="73.00" waitingCount="1" stopTime="0.00" timeLoss="89.03" rerouteNo="0" devices="tripinfo_E0__0__background.10" vType="background" speedFactor="1.13" vaporized=""/>
    <tripinfo id="-E1__1__background.4" depart="81.00" departLane="-E1_2" departPos="4.60" departSpeed="0.00" departDelay="0.50" arrival="164.00" arrivalLane="-E0_2" arrivalPos="118.28" arrivalSpeed="13.91" duration="83.00" routeLength="276.29" waitingTime="49.00" waitingCount="1" stopTime="0.00" timeLoss="62.94" rerouteNo="0" devices="tripinfo_-E1__1__background.4" vType="background" speedFactor="1.02" vaporized=""/>
    <tripinfo id="E0__1__ego.0" depart="92.00" departLane="E0_2" departPos="4.60" departSpeed="0.00" departDelay="0.92" arrival="165.00" arrivalLane="E1_2" arrivalPos="134.76" arrivalSpeed="16.25" duration="73.00" routeLength="276.28" waitingTime="37.00" waitingCount="1" stopTime="0.00" timeLoss="55.22" rerouteNo="0" devices="tripinfo_E0__1__ego.0" vType="ego" speedFactor="1.18" vaporized=""/>
    <tripinfo id="E0__1__ego.1" depart="100.00" departLane="E0_1" departPos="4.60" departSpeed="0.00" departDelay="0.85" arrival="166.00" arrivalLane="E1_2" arrivalPos="134.76" arrivalSpeed="14.22" duration="66.00" routeLength="276.28" waitingTime="32.00" waitingCount="1" stopTime="0.00" timeLoss="46.97" rerouteNo="0" devices="tripinfo_E0__1__ego.1" vType="ego" speedFactor="1.07" vaporized=""/>
    <tripinfo id="-E1__2__background.0" depart="121.00" departLane="-E1_1" departPos="4.60" departSpeed="0.00" departDelay="0.71" arrival="166.00" arrivalLane="-E0_2" arrivalPos="118.28" arrivalSpeed="12.20" duration="45.00" routeLength="276.29" waitingTime="11.00" waitingCount="1" stopTime="0.00" timeLoss="22.82" rerouteNo="0" devices="tripinfo_-E1__2__background.0" vType="background" speedFactor="0.93" vaporized=""/>
    <tripinfo id="-E1__2__ego.0" depart="129.00" departLane="-E1_1" departPos="4.60" departSpeed="0.00" departDelay="0.54" arrival="167.00" arrivalLane="-E0_2" arrivalPos="118.28" arrivalSpeed="13.01" duration="38.00" routeLength="276.29" waitingTime="6.00" waitingCount="1" stopTime="0.00" timeLoss="20.79" rerouteNo="0" devices="tripinfo_-E1__2__ego.0" vType="ego" speedFactor="1.16" vaporized=""/>