<?xml version="1.0" encoding="UTF-8"?>

<!-- generated on 2023-12-01 14:30:23 by Eclipse SUMO GUI Version 1.18.0
<configuration xmlns:xsi="http://www.w3.org/2001/XMLSchema-instance" xsi:noNamespaceSchemaLocation="http://sumo.dlr.de/xsd/sumoConfiguration.xsd">

    <input>
        <net-file value="/home/wmn/TrafficAlpha/TSC-LLM/TSCRL/../TSCScenario/4way/env/4way.net.xml"/>
        <route-files value="/home/wmn/TrafficAlpha/TSC-LLM/TSCRL/../TSCScenario/4way/env/../routes/vehicle.rou.xml"/>
        <additional-files value="/home/wmn/TrafficAlpha/TSC-LLM/TSCRL/../TSCScenario/4way/env/../add/tls.add.xml,/home/wmn/TrafficAlpha/TSC-LLM/TSCRL/../TSCScenario/4way/env/ ../add/e2.add.xml"/>
    </input>

    <output>
        <tripinfo-output value="/home/wmn/TrafficAlpha/TSC-LLM/TSCRL/./4way_next_or_not.tripinfo.xml"/>
    </output>

    <processing>
        <time-to-teleport value="-1"/>
        <waiting-time-memory value="10000"/>
        <max-depart-delay value="100000"/>
    </processing>

    <report>
        <no-warnings value="true"/>
        <no-step-log value="true"/>
    </report>

    <traci_server>
        <remote-port value="59877"/>
    </traci_server>

    <random_number>
        <random value="true"/>
    </random_number>

    <gui_only>
        <quit-on-end value="true"/>
        <start value="true"/>
    </gui_only>

</configuration>
-->

<tripinfos xmlns:xsi="http://www.w3.org/2001/XMLSchema-instance" xsi:noNamespaceSchemaLocation="http://sumo.dlr.de/xsd/tripinfo_file.xsd">
    <tripinfo id="E0__0__background.0" depart="4.00" departLane="E0_1" departPos="4.60" departSpeed="0.00" departDelay="0.42" arrival="28.00" arrivalLane="E3_1" arrivalPos="113.06" arrivalSpeed="12.95" duration="24.00" routeLength="238.81" waitingTime="0.00" waitingCount="0" stopTime="0.00" timeLoss="5.25" rerouteNo="0" devices="tripinfo_E0__0__background.0" vType="background" speedFactor="0.96" vaporized=""/>
    <tripinfo id="-E1__0__background.1" depart="5.00" departLane="-E1_2" departPos="4.60" departSpeed="0.00" departDelay="0.84" arrival="30.00" arrivalLane="-E2_1" arrivalPos="107.89" arrivalSpeed="12.55" duration="25.00" routeLength="250.13" waitingTime="0.00" waitingCount="0" stopTime="0.00" timeLoss="5.39" rerouteNo="0" devices="tripinfo_-E1__0__background.1" vType="background" speedFactor="0.98" vaporized=""/>
    <tripinfo id="-E1__0__background.2" depart="8.00" departLane="-E1_1" departPos="4.60" departSpeed="0.00" departDelay="2.32" arrival="34.00" arrivalLane="-E0_2" arrivalPos="118.28" arrivalSpeed="12.21" duration="26.00" routeLength="276.29" waitingTime="0.00" waitingCount="0" stopTime="0.00" timeLoss="3.54" rerouteNo="0" devices="tripinfo_-E1__0__background.2" vType="background" speedFactor="0.90" vaporized=""/>
    <tripinfo id="-E1__0__ego.0" depart="9.00" departLane="-E1_3" departPos="4.60" departSpeed="0.00" departDelay="1.29" arrival="35.00" arrivalLane="-E2_1" arrivalPos="107.89" arrivalSpeed="13.51" duration="26.00" routeLength="250.13" waitingTime="0.00" waitingCount="0" stopTime="0.00" timeLoss="7.21" rerouteNo="0" devices="tripinfo_-E1__0__ego.0" vType="ego" speedFactor="1.04" vaporized=""/>
    <tripinfo id="E0__0__background.1" depart="11.00" departLane="E0_2" departPos="4.60" departSpeed="0.00" departDelay="0.12" arrival="36.00" arrivalLane="E3_1" arrivalPos="113.06" arrivalSpeed="12.62" duration="25.00" routeLength="238.81" waitingTime="0.00" waitingCount="0" stopTime="0.00" timeLoss="5.63" rerouteNo="0" devices="tripinfo_E0__0__background.1" vType="background" speedFactor="0.96" vaporized=""/>
    <tripinfo id="E0__0__background.2" depart="12.00" departLane="E0_3" departPos="4.60" departSpeed="0.00" departDelay="0.97" arrival="36.00" arrivalLane="E1_2" arrivalPos="134.76" arrivalSpeed="13.45" duration="24.00" routeLength="276.28" waitingTime="0.00" waitingCount="0" stopTime="0.00" timeLoss="3.47" rerouteNo="0" devices="tripinfo_E0__0__background.2" vType="background" speedFactor="0.99" vaporized=""/>
    <tripinfo id="-E1__0__background.0" depart="1.00" departLane="-E1_1" departPos="4.60" departSpeed="0.00" departDelay="0.16" arrival="41.00" arrivalLane="E3_2" arrivalPos="113.06" arrivalSpeed="11.81" duration="40.00" routeLength="267.65" waitingTime="9.00" waitingCount="1" stopTime="0.00" timeLoss="18.54" rerouteNo="0" devices="tripinfo_-E1__0__background.0" vType="background" speedFactor="0.93" vaporized=""/>
    <tripinfo id="E0__0__background.3" depart="18.00" departLane="E0_1" departPos="4.60" departSpeed="0.00" departDelay="0.63" arrival="43.00" arrivalLane="-E2_2" arrivalPos="107.89" arrivalSpeed="13.10" duration="25.00" routeLength="245.98" waitingTime="0.00" waitingCount="0" stopTime="0.00" timeLoss="5.50" rerouteNo="0" devices="tripinfo_E0__0__background.3" vType="background" speedFactor="0.97" vaporized=""/>
    <tripinfo id="E2__0__background.0" depart="6.00" departLane="E2_1" departPos="4.60" departSpeed="0.00" departDelay="0.01" arrival="49.00" arrivalLane="E3_2" arrivalPos="113.06" arrivalSpeed="14.43" duration="43.00" routeLength="243.41" waitingTime="17.00" waitingCount="1" stopTime="0.00" timeLoss="25.81" rerouteNo="0" devices="tripinfo_E2__0__background.0" vType="background" speedFactor="1.08" vaporized=""/>
    <tripinfo id="-E3__0__ego.0" depart="7.00" departLane="-E3_2" departPos="4.60" departSpeed="0.00" departDelay="0.46" arrival="49.00" arrivalLane="-E2_2" arrivalPos="107.89" arrivalSpeed="12.90" duration="42.00" routeLength="243.42" waitingTime="12.00" waitingCount="2" stopTime="0.00" timeLoss="23.27" rerouteNo="0" devices="tripinfo_-E3__0__ego.0" vType="ego" speedFactor="0.96" vaporized=""/>
    <tripinfo id="E2__0__ego.0" depart="8.00" departLane="E2_1" departPos="4.60" departSpeed="0.00" departDelay="0.05" arrival="50.00" arrivalLane="E3_2" arrivalPos="113.06" arrivalSpeed="15.90" duration="42.00" routeLength="243.41" waitingTime="14.00" waitingCount="1" stopTime="0.00" timeLoss="26.51" rerouteNo="0" devices="tripinfo_E2__0__ego.0" vType="ego" speedFactor="1.15" vaporized=""/>
    <tripinfo id="-E3__0__background.0" depart="13.00" departLane="-E3_3" departPos="4.60" departSpeed="0.00" departDelay="0.68" arrival="51.00" arrivalLane="-E2_2" arrivalPos="107.89" arrivalSpeed="14.55" duration="38.00" routeLength="243.42" waitingTime="9.00" waitingCount="1" stopTime="0.00" timeLoss="20.97" rerouteNo="0" devices="tripinfo_-E3__0__background.0" vType="background" speedFactor="1.09" vaporized=""/>
    <tripinfo id="-E3__0__background.3" depart="27.00" departLane="-E3_2" departPos="4.60" departSpeed="0.00" departDelay="0.05" arrival="52.00" arrivalLane="E1_1" arrivalPos="134.76" arrivalSpeed="13.64" duration="25.00" routeLength="254.61" waitingTime="0.00" waitingCount="0" stopTime="0.00" timeLoss="5.32" rerouteNo="0" devices="tripinfo_-E3__0__background.3" vType="background" speedFactor="1.01" vaporized=""/>
    <tripinfo id="-E3__0__background.1" depart="20.00" departLane="-E3_3" departPos="4.60" departSpeed="0.00" departDelay="0.72" arrival="53.00" arrivalLane="-E2_2" arrivalPos="107.89" arrivalSpeed="13.95" duration="33.00" routeLength="243.42" waitingTime="5.00" waitingCount="1" stopTime="0.00" timeLoss="14.75" rerouteNo="0" devices="tripinfo_-E3__0__background.1" vType="background" speedFactor="1.01" vaporized=""/>
    <tripinfo id="E2__0__background.1" depart="26.00" departLane="E2_2" departPos="4.60" departSpeed="0.00" departDelay="0.78" arrival="53.00" arrivalLane="E3_2" arrivalPos="113.06" arrivalSpeed="12.37" duration="27.00" routeLength="243.41" waitingTime="0.00" waitingCount="0" stopTime="0.00" timeLoss="8.74" rerouteNo="0" devices="tripinfo_E2__0__background.1" vType="background" speedFactor="0.96" vaporized=""/>
    <tripinfo id="-E3__0__background.2" depart="22.00" departLane="-E3_1" departPos="4.60" departSpeed="0.00" departDelay="1.68" arrival="54.00" arrivalLane="-E2_2" arrivalPos="107.89" arrivalSpeed="12.86" duration="32.00" routeLength="243.42" waitingTime="3.00" waitingCount="1" stopTime="0.00" timeLoss="13.97" rerouteNo="0" devices="tripinfo_-E3__0__background.2" vType="background" speedFactor="0.98" vaporized=""/>
    <tripinfo id="E2__0__background.2" depart="29.00" departLane="E2_1" departPos="4.60" departSpeed="0.00" departDelay="0.71" arrival="56.00" arrivalLane="E3_2" arrivalPos="113.06" arrivalSpeed="12.47" duration="27.00" routeLength="243.41" waitingTime="0.00" waitingCount="0" stopTime="0.00" timeLoss="6.98" rerouteNo="0" devices="tripinfo_E2__0__background.2" vType="background" speedFactor="0.90" vaporized=""/>
    <tripinfo id="E2__0__ego.1" depart="34.00" departLane="E2_2" departPos="4.60" departSpeed="0.00" departDelay="0.34" arrival="58.00" arrivalLane="E3_2" arrivalPos="113.06" arrivalSpeed="12.98" duration="24.00" routeLength="243.41" waitingTime="0.00" waitingCount="0" stopTime="0.00" timeLoss="4.65" rerouteNo="0" devices="tripinfo_E2__0__ego.1" vType="ego" speedFactor="0.95" vaporized=""/>
    <tripinfo id="-E3__0__ego.1" depart="7.00" departLane="-E3_1" departPos="4.60" departSpeed="0.00" departDelay="0.20" arrival="64.00" arrivalLane="-E0_2" arrivalPos="118.28" arrivalSpeed="12.22" duration="57.00" routeLength="251.36" waitingTime="28.00" waitingCount="1" stopTime="0.00" timeLoss="37.14" rerouteNo="0" devices="tripinfo_-E3__0__ego.1" vType="ego" speedFactor="0.96" vaporized=""/>
    <tripinfo id="-E1__0__ego.1" depart="11.00" departLane="-E1_1" departPos="4.60" departSpeed="0.00" departDelay="0.18" arrival="68.00" arrivalLane="-E2_1" arrivalPos="107.89" arrivalSpeed="14.50" duration="57.00" routeLength="250.13" waitingTime="29.00" waitingCount="1" stopTime="0.00" timeLoss="38.95" rerouteNo="0" devices="tripinfo_-E1__0__ego.1" vType="ego" speedFactor="1.05" vaporized=""/>
    <tripinfo id="-E1__0__background.5" depart="24.00" departLane="-E1_2" departPos="4.60" departSpeed="0.00" departDelay="0.65" arrival="69.00" arrivalLane="-E0_2" arrivalPos="118.28" arrivalSpeed="14.55" duration="45.00" routeLength="276.29" waitingTime="17.00" waitingCount="1" stopTime="0.00" timeLoss="26.51" rerouteNo="0" devices="tripinfo_-E1__0__background.5" vType="background" speedFactor="1.15" vaporized=""/>
    <tripinfo id="E0__0__ego.0" depart="16.00" departLane="E0_3" departPos="4.60" departSpeed="0.00" departDelay="0.07" arrival="70.00" arrivalLane="E3_1" arrivalPos="113.06" arrivalSpeed="12.49" duration="54.00" routeLength="238.81" waitingTime="26.00" waitingCount="1" stopTime="0.00" timeLoss="33.67" rerouteNo="0" devices="tripinfo_E0__0__ego.0" vType="ego" speedFactor="0.91" vaporized=""/>
    <tripinfo id="E0__0__background.4" depart="26.00" departLane="E0_3" departPos="4.60" departSpeed="0.00" departDelay="0.10" arrival="71.00" arrivalLane="E1_2" arrivalPos="134.76" arrivalSpeed="13.95" duration="45.00" routeLength="276.28" waitingTime="17.00" waitingCount="1" stopTime="0.00" timeLoss="25.77" rerouteNo="0" devices="tripinfo_E0__0__background.4" vType="background" speedFactor="1.09" vaporized=""/>
    <tripinfo id="-E1__0__background.3" depart="16.00" departLane="-E1_3" departPos="4.60" departSpeed="0.00" departDelay="0.32" arrival="72.00" arrivalLane="-E2_1" arrivalPos="107.89" arrivalSpeed="12.51" duration="56.00" routeLength="250.13" waitingTime="25.00" waitingCount="1" stopTime="0.00" timeLoss="34.62" rerouteNo="0" devices="tripinfo_-E1__0__background.3" vType="background" speedFactor="0.91" vaporized=""/>
    <tripinfo id="-E1__0__ego.2" depart="36.00" departLane="-E1_2" departPos="4.60" departSpeed="0.00" departDelay="0.09" arrival="72.00" arrivalLane="-E0_2" arrivalPos="118.28" arrivalSpeed="12.66" duration="36.00" routeLength="276.29" waitingTime="8.00" waitingCount="1" stopTime="0.00" timeLoss="15.72" rerouteNo="0" devices="tripinfo_-E1__0__ego.2" vType="ego" speedFactor="1.00" vaporized=""/>
    <tripinfo id="E0__0__ego.1" depart="41.00" departLane="E0_2" departPos="4.60" departSpeed="0.00" departDelay="0.46" arrival="72.00" arrivalLane="E3_1" arrivalPos="113.06" arrivalSpeed="13.29" duration="31.00" routeLength="238.81" waitingTime="3.00" waitingCount="1" stopTime="0.00" timeLoss="12.71" rerouteNo="0" devices="tripinfo_E0__0__ego.1" vType="ego" speedFactor="1.03" vaporized=""/>
    <tripinfo id="E0__0__background.5" depart="28.00" departLane="E0_2" departPos="4.60" departSpeed="0.00" departDelay="1.30" arrival="73.00" arrivalLane="E1_2" arrivalPos="134.76" arrivalSpeed="13.51" duration="45.00" routeLength="276.28" waitingTime="14.00" waitingCount="1" stopTime="0.00" timeLoss="24.80" rerouteNo="0" devices="tripinfo_E0__0__background.5" vType="background" speedFactor="0.99" vaporized=""/>
    <tripinfo id="-E1__0__background.4" depart="17.00" departLane="-E1_1" departPos="4.60" departSpeed="0.00" departDelay="0.25" arrival="74.00" arrivalLane="-E2_1" arrivalPos="107.89" arrivalSpeed="14.27" duration="57.00" routeLength="250.13" waitingTime="25.00" waitingCount="1" stopTime="0.00" timeLoss="38.16" rerouteNo="0" devices="tripinfo_-E1__0__background.4" vType="background" speedFactor="1.06" vaporized=""/>
    <tripinfo id="-E1__0__background.6" depart="47.00" departLane="-E1_3" departPos="4.60" departSpeed="0.00" departDelay="0.98" arrival="74.00" arrivalLane="-E0_2" arrivalPos="118.28" arrivalSpeed="13.04" duration="27.00" routeLength="276.29" waitingTime="0.00" waitingCount="0" stopTime="0.00" timeLoss="5.83" rerouteNo="0" devices="tripinfo_-E1__0__background.6" vType="background" speedFactor="0.95" vaporized=""/>
    <tripinfo id="E0__0__background.6" depart="29.00" departLane="E0_3" departPos="4.60" departSpeed="0.00" departDelay="0.21" arrival="75.00" arrivalLane="E1_2" arrivalPos="134.76" arrivalSpeed="12.88" duration="46.00" routeLength="276.28" waitingTime="14.00" waitingCount="1" stopTime="0.00" timeLoss="25.94" rerouteNo="0" devices="tripinfo_E0__0__background.6" vType="background" speedFactor="1.00" vaporized=""/>
    <tripinfo id="E0__0__ego.3" depart="53.00" departLane="E0_2" departPos="4.60" departSpeed="0.00" departDelay="0.87" arrival="75.00" arrivalLane="E3_1" arrivalPos="113.06" arrivalSpeed="15.81" duration="22.00" routeLength="238.81" waitingTime="0.00" waitingCount="0" stopTime="0.00" timeLoss="7.39" rerouteNo="0" devices="tripinfo_E0__0__ego.3" vType="ego" speedFactor="1.25" vaporized=""/>
    <tripinfo id="-E1__0__ego.3" depart="49.00" departLane="-E1_1" departPos="4.60" departSpeed="0.00" departDelay="0.77" arrival="76.00" arrivalLane="-E0_2" arrivalPos="118.28" arrivalSpeed="14.10" duration="27.00" routeLength="276.29" waitingTime="0.00" waitingCount="0" stopTime="0.00" timeLoss="6.82" rerouteNo="0" devices="tripinfo_-E1__0__ego.3" vType="ego" speedFactor="1.02" vaporized=""/>
    <tripinfo id="E0__0__background.7" depart="37.00" departLane="E0_1" departPos="4.60" departSpeed="0.00" departDelay="0.21" arrival="77.00" arrivalLane="E1_2" arrivalPos="134.76" arrivalSpeed="12.58" duration="40.00" routeLength="276.28" waitingTime="10.00" waitingCount="1" stopTime="0.00" timeLoss="19.84" rerouteNo="0" devices="tripinfo_E0__0__background.7" vType="background" speedFactor="0.99" vaporized=""/>
    <tripinfo id="E0__0__background.8" depart="42.00" departLane="E0_1" departPos="4.60" departSpeed="0.00" departDelay="1.15" arrival="79.00" arrivalLane="E1_2" arrivalPos="134.76" arrivalSpeed="13.85" duration="37.00" routeLength="276.28" waitingTime="4.00" waitingCount="1" stopTime="0.00" timeLoss="18.08" rerouteNo="0" devices="tripinfo_E0__0__background.8" vType="background" speedFactor="1.08" vaporized=""/>
    <tripinfo id="E0__0__background.9" depart="45.00" departLane="E0_1" departPos="4.60" departSpeed="0.00" departDelay="0.54" arrival="82.00" arrivalLane="E1_2" arrivalPos="134.76" arrivalSpeed="12.01" duration="37.00" routeLength="276.28" waitingTime="3.00" waitingCount="1" stopTime="0.00" timeLoss="14.38" rerouteNo="0" devices="tripinfo_E0__0__background.9" vType="background" speedFactor="0.90" vaporized=""/>
    <tripinfo id="-E1__0__background.9" depart="55.00" departLane="-E1_3" departPos="4.60" departSpeed="0.00" departDelay="1.55" arrival="82.00" arrivalLane="-E0_2" arrivalPos="118.28" arrivalSpeed="12.13" duration="27.00" routeLength="276.29" waitingTime="0.00" waitingCount="0" stopTime="0.00" timeLoss="4.04" rerouteNo="0" devices="tripinfo_-E1__0__background.9" vType="background" speedFactor="0.88" vaporized=""/>
    <tripinfo id="E0__0__ego.2" depart="48.00" departLane="E0_1" departPos="4.60" departSpeed="0.00" departDelay="0.08" arrival="84.00" arrivalLane="E1_2" arrivalPos="134.76" arrivalSpeed="12.80" duration="36.00" routeLength="276.28" waitingTime="2.00" waitingCount="1" stopTime="0.00" timeLoss="14.05" rerouteNo="0" devices="tripinfo_E0__0__ego.2" vType="ego" speedFactor="0.95" vaporized=""/>
    <tripinfo id="E0__0__background.10" depart="56.00" departLane="E0_1" departPos="4.60" departSpeed="0.00" departDelay="1.06" arrival="85.00" arrivalLane="E1_2" arrivalPos="134.76" arrivalSpeed="14.65" duration="29.00" routeLength="276.28" waitingTime="0.00" waitingCount="0" stopTime="0.00" timeLoss="10.24" rerouteNo="0" devices="tripinfo_E0__0__background.10" vType="background" speedFactor="1.31" vaporized=""/>
    <tripinfo id="-E1__1__ego.0" depart="62.00" departLane="-E1_2" departPos="4.60" departSpeed="0.00" departDelay="0.46" arrival="86.00" arrivalLane="-E0_2" arrivalPos="118.28" arrivalSpeed="13.57" duration="24.00" routeLength="276.29" waitingTime="0.00" waitingCount="0" stopTime="0.00" timeLoss="3.87" rerouteNo="0" devices="tripinfo_-E1__1__ego.0" vType="ego" speedFactor="1.01" vaporized=""/>
    <tripinfo id="E0__1__background.0" depart="65.00" departLane="E0_3" departPos="4.60" departSpeed="0.00" departDelay="0.46" arrival="90.00" arrivalLane="E3_1" arrivalPos="113.06" arrivalSpeed="11.83" duration="25.00" routeLength="238.81" waitingTime="0.00" waitingCount="0" stopTime="0.00" timeLoss="4.98" rerouteNo="0" devices="tripinfo_E0__1__background.0" vType="background" speedFactor="0.90" vaporized=""/>
    <tripinfo id="-E1__0__background.7" depart="49.00" departLane="-E1_2" departPos="4.60" departSpeed="0.00" departDelay="2.98" arrival="94.00" arrivalLane="E3_2" arrivalPos="113.06" arrivalSpeed="13.64" duration="45.00" routeLength="267.65" waitingTime="14.00" waitingCount="1" stopTime="0.00" timeLoss="25.25" rerouteNo="0" devices="tripinfo_-E1__0__background.7" vType="background" speedFactor="1.02" vaporized=""/>
    <tripinfo id="-E1__0__rescue.0" depart="52.00" departLane="-E1_1" departPos="5.10" departSpeed="0.00" departDelay="0.48" arrival="96.00" arrivalLane="E3_2" arrivalPos="113.06" arrivalSpeed="17.84" duration="44.00" routeLength="267.15" waitingTime="13.00" waitingCount="1" stopTime="0.00" timeLoss="28.36" rerouteNo="0" devices="tripinfo_-E1__0__rescue.0" vType="rescue" speedFactor="1.34" vaporized=""/>
    <tripinfo id="-E3__0__background.4" depart="42.00" departLane="-E3_2" departPos="4.60" departSpeed="0.00" departDelay="0.70" arrival="100.00" arrivalLane="-E2_2" arrivalPos="107.89" arrivalSpeed="14.68" duration="58.00" routeLength="243.42" waitingTime="31.00" waitingCount="1" stopTime="0.00" timeLoss="41.34" rerouteNo="0" devices="tripinfo_-E3__0__background.4" vType="background" speedFactor="1.09" vaporized=""/>
    <tripinfo id="E2__1__ego.0" depart="65.00" departLane="E2_3" departPos="4.60" departSpeed="0.00" departDelay="1.53" arrival="101.00" arrivalLane="-E0_1" arrivalPos="118.28" arrivalSpeed="13.58" duration="36.00" routeLength="232.95" waitingTime="7.00" waitingCount="1" stopTime="0.00" timeLoss="17.60" rerouteNo="0" devices="tripinfo_E2__1__ego.0" vType="ego" speedFactor="1.00" vaporized=""/>
    <tripinfo id="E2__0__background.4" depart="49.00" departLane="E2_2" departPos="4.60" departSpeed="0.00" departDelay="0.86" arrival="103.00" arrivalLane="E3_2" arrivalPos="113.06" arrivalSpeed="11.41" duration="54.00" routeLength="243.41" waitingTime="25.00" waitingCount="1" stopTime="0.00" timeLoss="32.93" rerouteNo="0" devices="tripinfo_E2__0__background.4" vType="background" speedFactor="0.83" vaporized=""/>
    <tripinfo id="-E3__1__ego.0" depart="61.00" departLane="-E3_3" departPos="4.60" departSpeed="0.00" departDelay="0.97" arrival="103.00" arrivalLane="-E2_2" arrivalPos="107.89" arrivalSpeed="14.47" duration="42.00" routeLength="243.42" waitingTime="14.00" waitingCount="1" stopTime="0.00" timeLoss="24.78" rerouteNo="0" devices="tripinfo_-E3__1__ego.0" vType="ego" speedFactor="1.07" vaporized=""/>
    <tripinfo id="E2__1__background.0" depart="62.00" departLane="E2_1" departPos="4.60" departSpeed="0.00" departDelay="0.28" arrival="105.00" arrivalLane="E3_2" arrivalPos="113.06" arrivalSpeed="12.83" duration="43.00" routeLength="243.41" waitingTime="12.00" waitingCount="1" stopTime="0.00" timeLoss="25.04" rerouteNo="0" devices="tripinfo_E2__1__background.0" vType="background" speedFactor="1.00" vaporized=""/>
    <tripinfo id="-E3__1__background.0" depart="70.00" departLane="-E3_2" departPos="4.60" departSpeed="0.00" departDelay="0.69" arrival="105.00" arrivalLane="-E2_2" arrivalPos="107.89" arrivalSpeed="13.59" duration="35.00" routeLength="243.42" waitingTime="6.00" waitingCount="1" stopTime="0.00" timeLoss="16.82" rerouteNo="0" devices="tripinfo_-E3__1__background.0" vType="background" speedFactor="1.00" vaporized=""/>
    <tripinfo id="-E3__1__background.1" depart="72.00" departLane="-E3_3" departPos="4.60" departSpeed="0.00" departDelay="0.74" arrival="106.00" arrivalLane="-E2_2" arrivalPos="107.89" arrivalSpeed="14.65" duration="34.00" routeLength="243.42" waitingTime="5.00" waitingCount="1" stopTime="0.00" timeLoss="17.74" rerouteNo="0" devices="tripinfo_-E3__1__background.1" vType="background" speedFactor="1.11" vaporized=""/>
    <tripinfo id="E2__1__ego.1" depart="71.00" departLane="E2_1" departPos="4.60" departSpeed="0.00" departDelay="0.83" arrival="107.00" arrivalLane="E3_2" arrivalPos="113.06" arrivalSpeed="11.62" duration="36.00" routeLength="243.41" waitingTime="6.00" waitingCount="1" stopTime="0.00" timeLoss="15.94" rerouteNo="0" devices="tripinfo_E2__1__ego.1" vType="ego" speedFactor="0.90" vaporized=""/>
    <tripinfo id="E2__1__ego.2" depart="73.00" departLane="E2_3" departPos="4.60" departSpeed="0.00" departDelay="0.71" arrival="109.00" arrivalLane="E3_2" arrivalPos="113.06" arrivalSpeed="12.60" duration="36.00" routeLength="243.41" waitingTime="5.00" waitingCount="1" stopTime="0.00" timeLoss="17.21" rerouteNo="0" devices="tripinfo_E2__1__ego.2" vType="ego" speedFactor="0.98" vaporized=""/>
    <tripinfo id="-E3__1__background.2" depart="76.00" departLane="-E3_3" departPos="4.60" departSpeed="0.00" departDelay="0.92" arrival="109.00" arrivalLane="-E2_2" arrivalPos="107.89" arrivalSpeed="12.53" duration="33.00" routeLength="243.42" waitingTime="5.00" waitingCount="1" stopTime="0.00" timeLoss="13.52" rerouteNo="0" devices="tripinfo_-E3__1__background.2" vType="background" speedFactor="0.93" vaporized=""/>
    <tripinfo id="E2__1__background.2" depart="84.00" departLane="E2_2" departPos="4.60" departSpeed="0.00" departDelay="0.84" arrival="110.00" arrivalLane="E3_2" arrivalPos="113.06" arrivalSpeed="13.55" duration="26.00" routeLength="243.41" waitingTime="0.00" waitingCount="0" stopTime="0.00" timeLoss="8.59" rerouteNo="0" devices="tripinfo_E2__1__background.2" vType="background" speedFactor="1.02" vaporized=""/>
    <tripinfo id="-E3__1__background.3" depart="76.00" departLane="-E3_1" departPos="4.60" departSpeed="0.00" departDelay="0.41" arrival="111.00" arrivalLane="-E2_2" arrivalPos="107.89" arrivalSpeed="12.57" duration="35.00" routeLength="243.42" waitingTime="2.00" waitingCount="1" stopTime="0.00" timeLoss="16.51" rerouteNo="0" devices="tripinfo_-E3__1__background.3" vType="background" speedFactor="0.99" vaporized=""/>
    <tripinfo id="E2__1__background.3" depart="87.00" departLane="E2_2" departPos="4.60" departSpeed="0.00" departDelay="1.14" arrival="112.00" arrivalLane="E3_2" arrivalPos="113.06" arrivalSpeed="14.46" duration="25.00" routeLength="243.41" waitingTime="0.00" waitingCount="0" stopTime="0.00" timeLoss="8.10" rerouteNo="0" devices="tripinfo_E2__1__background.3" vType="background" speedFactor="1.21" vaporized=""/>
    <tripinfo id="E2__1__background.4" depart="88.00" departLane="E2_3" departPos="4.60" departSpeed="0.00" departDelay="0.65" arrival="115.00" arrivalLane="E3_2" arrivalPos="113.06" arrivalSpeed="11.07" duration="27.00" routeLength="243.41" waitingTime="0.00" waitingCount="0" stopTime="0.00" timeLoss="5.31" rerouteNo="0" devices="tripinfo_E2__1__background.4" vType="background" speedFactor="0.84" vaporized=""/>
    <tripinfo id="E2__1__background.5" depart="96.00" departLane="E2_3" departPos="4.60" departSpeed="0.00" departDelay="0.30" arrival="120.00" arrivalLane="E3_2" arrivalPos="113.06" arrivalSpeed="11.08" duration="24.00" routeLength="243.41" waitingTime="0.00" waitingCount="0" stopTime="0.00" timeLoss="3.38" rerouteNo="0" devices="tripinfo_E2__1__background.5" vType="background" speedFactor="0.88" vaporized=""/>
    <tripinfo id="E2__1__ego.3" depart="98.00" departLane="E2_1" departPos="4.60" departSpeed="0.00" departDelay="0.15" arrival="121.00" arrivalLane="E3_2" arrivalPos="113.06" arrivalSpeed="13.46" duration="23.00" routeLength="243.41" waitingTime="0.00" waitingCount="0" stopTime="0.00" timeLoss="7.38" rerouteNo="0" devices="tripinfo_E2__1__ego.3" vType="ego" speedFactor="1.13" vaporized=""/>
    <tripinfo id="E2__0__background.3" depart="44.00" departLane="E2_2" departPos="4.60" departSpeed="0.00" departDelay="0.81" arrival="132.00" arrivalLane="E1_2" arrivalPos="134.76" arrivalSpeed="13.09" duration="88.00" routeLength="262.66" waitingTime="57.00" waitingCount="1" stopTime="0.00" timeLoss="68.04" rerouteNo="0" devices="tripinfo_E2__0__background.3" vType="background" speedFactor="1.00" vaporized=""/>
    <tripinfo id="-E3__1__background.4" depart="79.00" departLane="-E3_2" departPos="4.60" departSpeed="0.00" departDelay="0.16" arrival="132.00" arrivalLane="-E0_2" arrivalPos="118.28" arrivalSpeed="10.81" duration="53.00" routeLength="251.36" waitingTime="21.00" waitingCount="1" stopTime="0.00" timeLoss="30.26" rerouteNo="0" devices="tripinfo_-E3__1__background.4" vType="background" speedFactor="0.83" vaporized=""/>
    <tripinfo id="E2__1__background.1" depart="76.00" departLane="E2_1" departPos="4.60" departSpeed="0.00" departDelay="1.99" arrival="134.00" arrivalLane="E1_2" arrivalPos="134.76" arrivalSpeed="13.52" duration="58.00" routeLength="262.66" waitingTime="28.00" waitingCount="1" stopTime="0.00" timeLoss="37.90" rerouteNo="0" devices="tripinfo_E2__1__background.1" vType="background" speedFactor="1.00" vaporized=""/>
    <tripinfo id="-E3__1__background.5" depart="90.00" departLane="-E3_3" departPos="4.60" departSpeed="0.00" departDelay="0.17" arrival="134.00" arrivalLane="-E0_2" arrivalPos="118.28" arrivalSpeed="14.47" duration="44.00" routeLength="251.36" waitingTime="13.00" waitingCount="1" stopTime="0.00" timeLoss="25.92" rerouteNo="0" devices="tripinfo_-E3__1__background.5" vType="background" speedFactor="1.09" vaporized=""/>
    <tripinfo id="-E1__1__ego.1" depart="77.00" departLane="-E1_1" departPos="4.60" departSpeed="0.00" departDelay="0.54" arrival="138.00" arrivalLane="-E2_1" arrivalPos="107.89" arrivalSpeed="10.25" duration="61.00" routeLength="250.13" waitingTime="28.00" waitingCount="1" stopTime="0.00" timeLoss="37.50" rerouteNo="0" devices="tripinfo_-E1__1__ego.1" vType="ego" speedFactor="0.81" vaporized=""/>
    <tripinfo id="-E1__1__background.0" depart="64.00" departLane="-E1_1" departPos="4.60" departSpeed="0.00" departDelay="0.57" arrival="139.00" arrivalLane="-E0_2" arrivalPos="118.28" arrivalSpeed="11.24" duration="75.00" routeLength="276.29" waitingTime="42.00" waitingCount="1" stopTime="0.00" timeLoss="51.13" rerouteNo="0" devices="tripinfo_-E1__1__background.0" vType="background" speedFactor="0.85" vaporized=""/>
    <tripinfo id="E0__1__ego.0" depart="92.00" departLane="E0_1" departPos="4.60" departSpeed="0.00" departDelay="0.92" arrival="139.00" arrivalLane="E1_2" arrivalPos="134.76" arrivalSpeed="11.58" duration="47.00" routeLength="276.28" waitingTime="16.00" waitingCount="1" stopTime="0.00" timeLoss="25.14" rerouteNo="0" devices="tripinfo_E0__1__ego.0" vType="ego" speedFactor="0.91" vaporized=""/>
    <tripinfo id="-E1__1__background.2" depart="74.00" departLane="-E1_3" departPos="4.60" departSpeed="0.00" departDelay="0.33" arrival="141.00" arrivalLane="-E0_2" arrivalPos="118.28" arrivalSpeed="12.42" duration="67.00" routeLength="276.29" waitingTime="33.00" waitingCount="2" stopTime="0.00" timeLoss="46.04" rerouteNo="0" devices="tripinfo_-E1__1__background.2" vType="background" speedFactor="0.98" vaporized=""/>
    <tripinfo id="E0__1__ego.1" depart="100.00" departLane="E0_2" departPos="4.60" departSpeed="0.00" departDelay="0.85" arrival="141.00" arrivalLane="E1_2" arrivalPos="134.76" arrivalSpeed="13.18" duration="41.00" routeLength="276.28" waitingTime="10.00" waitingCount="1" stopTime="0.00" timeLoss="21.22" rerouteNo="0" devices="tripinfo_E0__1__ego.1" vType="ego" speedFactor="1.03" vaporized=""/>
    <tripinfo id="-E1__0__background.10" depart="57.00" departLane="-E1_1" departPos="4.60" departSpeed="0.00" departDelay="0.85" arrival="146.00" arrivalLane="E3_2" arrivalPos="113.06" arrivalSpeed="14.09" duration="89.00" routeLength="267.65" waitingTime="55.00" waitingCount="2" stopTime="0.00" timeLoss="69.80" rerouteNo="0" devices="tripinfo_-E1__0__background.10" vType="background" speedFactor="1.13" vaporized=""/>
    <tripinfo id="E0__1__background.2" depart="87.00" departLane="E0_2" departPos="4.60" departSpeed="0.00" departDelay="0.60" arrival="146.00" arrivalLane="-E2_2" arrivalPos="107.89" arrivalSpeed="13.94" duration="59.00" routeLength="245.98" waitingTime="32.00" waitingCount="1" stopTime="0.00" timeLoss="41.31" rerouteNo="0" devices="tripinfo_E0__1__background.2" vType="background" speedFactor="1.16" vaporized=""/>