<?xml version="1.0" encoding="UTF-8"?>

<!-- generated on 2023-12-01 22:44:31 by Eclipse SUMO GUI Version 1.18.0
<configuration xmlns:xsi="http://www.w3.org/2001/XMLSchema-instance" xsi:noNamespaceSchemaLocation="http://sumo.dlr.de/xsd/sumoConfiguration.xsd">

    <input>
        <net-file value="/home/wmn/TrafficAlpha/TSC-LLM/ConventionalMethods/../TSCScenario/4way/env/4way.net.xml"/>
        <route-files value="/home/wmn/TrafficAlpha/TSC-LLM/ConventionalMethods/../TSCScenario/4way/env/../routes/vehicle.rou.xml"/>
        <additional-files value="/home/wmn/TrafficAlpha/TSC-LLM/ConventionalMethods/../TSCScenario/4way/env/../add/tls.add.xml,/home/wmn/TrafficAlpha/TSC-LLM/ConventionalMethods/../TSCScenario/4way/env/ ../add/e2.add.xml"/>
    </input>

    <output>
        <tripinfo-output value="/home/wmn/TrafficAlpha/TSC-LLM/ConventionalMethods/./4way_SOTL.tripinfo.xml"/>
    </output>

    <processing>
        <time-to-teleport value="-1"/>
        <waiting-time-memory value="10000"/>
        <max-depart-delay value="100000"/>
    </processing>

    <report>
        <no-warnings value="true"/>
        <no-step-log value="true"/>
    </report>

    <traci_server>
        <remote-port value="44527"/>
    </traci_server>

    <random_number>
        <random value="true"/>
    </random_number>

    <gui_only>
        <quit-on-end value="true"/>
        <start value="true"/>
    </gui_only>

</configuration>
-->

<tripinfos xmlns:xsi="http://www.w3.org/2001/XMLSchema-instance" xsi:noNamespaceSchemaLocation="http://sumo.dlr.de/xsd/tripinfo_file.xsd">
    <tripinfo id="E2__0__background.0" depart="6.00" departLane="E2_2" departPos="4.60" departSpeed="0.00" departDelay="0.01" arrival="26.00" arrivalLane="E3_2" arrivalPos="113.06" arrivalSpeed="14.75" duration="20.00" routeLength="243.41" waitingTime="0.00" waitingCount="0" stopTime="0.00" timeLoss="3.49" rerouteNo="0" devices="tripinfo_E2__0__background.0" vType="background" speedFactor="1.08" vaporized=""/>
    <tripinfo id="-E3__0__ego.0" depart="7.00" departLane="-E3_1" departPos="4.60" departSpeed="0.00" departDelay="0.46" arrival="28.00" arrivalLane="-E2_2" arrivalPos="107.89" arrivalSpeed="12.93" duration="21.00" routeLength="243.42" waitingTime="0.00" waitingCount="0" stopTime="0.00" timeLoss="3.06" rerouteNo="0" devices="tripinfo_-E3__0__ego.0" vType="ego" speedFactor="1.00" vaporized=""/>
    <tripinfo id="E2__0__ego.0" depart="8.00" departLane="E2_1" departPos="4.60" departSpeed="0.00" departDelay="0.05" arrival="30.00" arrivalLane="E3_2" arrivalPos="113.06" arrivalSpeed="12.57" duration="22.00" routeLength="243.41" waitingTime="0.00" waitingCount="0" stopTime="0.00" timeLoss="3.37" rerouteNo="0" devices="tripinfo_E2__0__ego.0" vType="ego" speedFactor="0.95" vaporized=""/>
    <tripinfo id="-E3__0__ego.1" depart="9.00" departLane="-E3_3" departPos="4.60" departSpeed="0.00" departDelay="2.20" arrival="36.00" arrivalLane="-E0_2" arrivalPos="118.28" arrivalSpeed="15.73" duration="27.00" routeLength="251.36" waitingTime="1.00" waitingCount="1" stopTime="0.00" timeLoss="10.83" rerouteNo="0" devices="tripinfo_-E3__0__ego.1" vType="ego" speedFactor="1.20" vaporized=""/>
    <tripinfo id="E0__0__background.0" depart="4.00" departLane="E0_3" departPos="4.60" departSpeed="0.00" departDelay="0.42" arrival="43.00" arrivalLane="E3_1" arrivalPos="113.06" arrivalSpeed="14.31" duration="39.00" routeLength="238.81" waitingTime="14.00" waitingCount="1" stopTime="0.00" timeLoss="22.29" rerouteNo="0" devices="tripinfo_E0__0__background.0" vType="background" speedFactor="1.09" vaporized=""/>
    <tripinfo id="-E1__0__background.1" depart="5.00" departLane="-E1_3" departPos="4.60" departSpeed="0.00" departDelay="0.84" arrival="43.00" arrivalLane="-E2_1" arrivalPos="107.89" arrivalSpeed="14.31" duration="38.00" routeLength="250.13" waitingTime="11.00" waitingCount="1" stopTime="0.00" timeLoss="20.20" rerouteNo="0" devices="tripinfo_-E1__0__background.1" vType="background" speedFactor="1.10" vaporized=""/>
    <tripinfo id="-E1__0__background.2" depart="6.00" departLane="-E1_2" departPos="4.60" departSpeed="0.00" departDelay="0.32" arrival="45.00" arrivalLane="-E0_2" arrivalPos="118.28" arrivalSpeed="12.99" duration="39.00" routeLength="276.29" waitingTime="8.00" waitingCount="1" stopTime="0.00" timeLoss="19.25" rerouteNo="0" devices="tripinfo_-E1__0__background.2" vType="background" speedFactor="1.02" vaporized=""/>
    <tripinfo id="-E1__0__ego.0" depart="8.00" departLane="-E1_1" departPos="4.60" departSpeed="0.00" departDelay="0.29" arrival="45.00" arrivalLane="-E2_1" arrivalPos="107.89" arrivalSpeed="14.20" duration="37.00" routeLength="250.13" waitingTime="8.00" waitingCount="1" stopTime="0.00" timeLoss="19.51" rerouteNo="0" devices="tripinfo_-E1__0__ego.0" vType="ego" speedFactor="1.09" vaporized=""/>
    <tripinfo id="E0__0__background.1" depart="11.00" departLane="E0_1" departPos="4.60" departSpeed="0.00" departDelay="0.12" arrival="46.00" arrivalLane="E3_1" arrivalPos="113.06" arrivalSpeed="14.10" duration="35.00" routeLength="238.81" waitingTime="7.00" waitingCount="1" stopTime="0.00" timeLoss="17.44" rerouteNo="0" devices="tripinfo_E0__0__background.1" vType="background" speedFactor="1.06" vaporized=""/>
    <tripinfo id="E0__0__background.2" depart="12.00" departLane="E0_2" departPos="4.60" departSpeed="0.00" departDelay="0.97" arrival="46.00" arrivalLane="E1_2" arrivalPos="134.76" arrivalSpeed="13.64" duration="34.00" routeLength="276.28" waitingTime="4.00" waitingCount="1" stopTime="0.00" timeLoss="14.68" rerouteNo="0" devices="tripinfo_E0__0__background.2" vType="background" speedFactor="1.06" vaporized=""/>
    <tripinfo id="-E1__0__background.5" depart="24.00" departLane="-E1_1" departPos="4.60" departSpeed="0.00" departDelay="0.65" arrival="47.00" arrivalLane="-E0_2" arrivalPos="118.28" arrivalSpeed="14.77" duration="23.00" routeLength="276.29" waitingTime="0.00" waitingCount="0" stopTime="0.00" timeLoss="3.93" rerouteNo="0" devices="tripinfo_-E1__0__background.5" vType="background" speedFactor="1.08" vaporized=""/>
    <tripinfo id="E0__0__background.4" depart="26.00" departLane="E0_1" departPos="4.60" departSpeed="0.00" departDelay="0.10" arrival="50.00" arrivalLane="E1_2" arrivalPos="134.76" arrivalSpeed="13.28" duration="24.00" routeLength="276.28" waitingTime="0.00" waitingCount="0" stopTime="0.00" timeLoss="3.52" rerouteNo="0" devices="tripinfo_E0__0__background.4" vType="background" speedFactor="1.00" vaporized=""/>
    <tripinfo id="-E1__0__background.0" depart="1.00" departLane="-E1_3" departPos="4.60" departSpeed="0.00" departDelay="0.16" arrival="53.00" arrivalLane="E3_2" arrivalPos="113.06" arrivalSpeed="12.58" duration="52.00" routeLength="267.65" waitingTime="22.00" waitingCount="1" stopTime="0.00" timeLoss="30.36" rerouteNo="0" devices="tripinfo_-E1__0__background.0" vType="background" speedFactor="0.92" vaporized=""/>
    <tripinfo id="E0__0__background.3" depart="18.00" departLane="E0_1" departPos="4.60" departSpeed="0.00" departDelay="0.63" arrival="54.00" arrivalLane="-E2_2" arrivalPos="107.89" arrivalSpeed="13.51" duration="36.00" routeLength="245.98" waitingTime="7.00" waitingCount="1" stopTime="0.00" timeLoss="17.80" rerouteNo="0" devices="tripinfo_E0__0__background.3" vType="background" speedFactor="1.05" vaporized=""/>
    <tripinfo id="-E3__0__background.0" depart="13.00" departLane="-E3_2" departPos="4.60" departSpeed="0.00" departDelay="0.68" arrival="61.00" arrivalLane="-E2_2" arrivalPos="107.89" arrivalSpeed="11.60" duration="48.00" routeLength="243.42" waitingTime="19.00" waitingCount="1" stopTime="0.00" timeLoss="27.57" rerouteNo="0" devices="tripinfo_-E3__0__background.0" vType="background" speedFactor="0.86" vaporized=""/>
    <tripinfo id="E2__0__background.1" depart="26.00" departLane="E2_3" departPos="4.60" departSpeed="0.00" departDelay="0.78" arrival="62.00" arrivalLane="E3_2" arrivalPos="113.06" arrivalSpeed="11.54" duration="36.00" routeLength="243.41" waitingTime="6.00" waitingCount="1" stopTime="0.00" timeLoss="16.49" rerouteNo="0" devices="tripinfo_E2__0__background.1" vType="background" speedFactor="0.92" vaporized=""/>
    <tripinfo id="-E3__0__background.3" depart="27.00" departLane="-E3_2" departPos="4.60" departSpeed="0.00" departDelay="0.05" arrival="62.00" arrivalLane="E1_1" arrivalPos="134.76" arrivalSpeed="12.88" duration="35.00" routeLength="254.61" waitingTime="6.00" waitingCount="1" stopTime="0.00" timeLoss="14.52" rerouteNo="0" devices="tripinfo_-E3__0__background.3" vType="background" speedFactor="0.94" vaporized=""/>
    <tripinfo id="-E3__0__background.1" depart="20.00" departLane="-E3_2" departPos="4.60" departSpeed="0.00" departDelay="0.72" arrival="63.00" arrivalLane="-E2_2" arrivalPos="107.89" arrivalSpeed="11.89" duration="43.00" routeLength="243.42" waitingTime="13.00" waitingCount="1" stopTime="0.00" timeLoss="23.69" rerouteNo="0" devices="tripinfo_-E3__0__background.1" vType="background" speedFactor="0.92" vaporized=""/>
    <tripinfo id="E2__0__background.2" depart="29.00" departLane="E2_2" departPos="4.60" departSpeed="0.00" departDelay="0.71" arrival="64.00" arrivalLane="E3_2" arrivalPos="113.06" arrivalSpeed="14.62" duration="35.00" routeLength="243.41" waitingTime="6.00" waitingCount="1" stopTime="0.00" timeLoss="17.94" rerouteNo="0" devices="tripinfo_E2__0__background.2" vType="background" speedFactor="1.13" vaporized=""/>
    <tripinfo id="E2__0__background.3" depart="44.00" departLane="E2_2" departPos="4.60" departSpeed="0.00" departDelay="0.81" arrival="72.00" arrivalLane="E1_2" arrivalPos="134.76" arrivalSpeed="11.52" duration="28.00" routeLength="262.66" waitingTime="0.00" waitingCount="0" stopTime="0.00" timeLoss="4.88" rerouteNo="0" devices="tripinfo_E2__0__background.3" vType="background" speedFactor="0.87" vaporized=""/>
    <tripinfo id="E0__0__ego.0" depart="16.00" departLane="E0_2" departPos="4.60" departSpeed="0.00" departDelay="0.07" arrival="76.00" arrivalLane="E3_1" arrivalPos="113.06" arrivalSpeed="14.95" duration="60.00" routeLength="238.81" waitingTime="28.00" waitingCount="2" stopTime="0.00" timeLoss="43.78" rerouteNo="0" devices="tripinfo_E0__0__ego.0" vType="ego" speedFactor="1.16" vaporized=""/>
    <tripinfo id="-E1__0__ego.1" depart="11.00" departLane="-E1_2" departPos="4.60" departSpeed="0.00" departDelay="0.18" arrival="77.00" arrivalLane="-E2_1" arrivalPos="107.89" arrivalSpeed="12.14" duration="66.00" routeLength="250.13" waitingTime="29.00" waitingCount="2" stopTime="0.00" timeLoss="44.39" rerouteNo="0" devices="tripinfo_-E1__0__ego.1" vType="ego" speedFactor="0.89" vaporized=""/>
    <tripinfo id="-E1__0__background.3" depart="16.00" departLane="-E1_3" departPos="4.60" departSpeed="0.00" departDelay="0.32" arrival="78.00" arrivalLane="-E2_1" arrivalPos="107.89" arrivalSpeed="12.85" duration="62.00" routeLength="250.13" waitingTime="28.00" waitingCount="2" stopTime="0.00" timeLoss="44.80" rerouteNo="0" devices="tripinfo_-E1__0__background.3" vType="background" speedFactor="1.19" vaporized=""/>
    <tripinfo id="-E1__0__ego.2" depart="36.00" departLane="-E1_3" departPos="4.60" departSpeed="0.00" departDelay="0.09" arrival="78.00" arrivalLane="-E0_2" arrivalPos="118.28" arrivalSpeed="13.98" duration="42.00" routeLength="276.29" waitingTime="11.00" waitingCount="1" stopTime="0.00" timeLoss="21.70" rerouteNo="0" devices="tripinfo_-E1__0__ego.2" vType="ego" speedFactor="1.01" vaporized=""/>
    <tripinfo id="E0__0__background.5" depart="28.00" departLane="E0_1" departPos="4.60" departSpeed="0.00" departDelay="1.30" arrival="79.00" arrivalLane="E1_2" arrivalPos="134.76" arrivalSpeed="14.52" duration="51.00" routeLength="276.28" waitingTime="20.00" waitingCount="1" stopTime="0.00" timeLoss="31.93" rerouteNo="0" devices="tripinfo_E0__0__background.5" vType="background" speedFactor="1.07" vaporized=""/>
    <tripinfo id="E0__0__ego.1" depart="41.00" departLane="E0_3" departPos="4.60" departSpeed="0.00" departDelay="0.46" arrival="79.00" arrivalLane="E3_1" arrivalPos="113.06" arrivalSpeed="15.35" duration="38.00" routeLength="238.81" waitingTime="11.00" waitingCount="1" stopTime="0.00" timeLoss="21.71" rerouteNo="0" devices="tripinfo_E0__0__ego.1" vType="ego" speedFactor="1.17" vaporized=""/>
    <tripinfo id="-E1__0__background.6" depart="47.00" departLane="-E1_2" departPos="4.60" departSpeed="0.00" departDelay="0.98" arrival="81.00" arrivalLane="-E0_2" arrivalPos="118.28" arrivalSpeed="11.41" duration="34.00" routeLength="276.29" waitingTime="1.00" waitingCount="1" stopTime="0.00" timeLoss="10.33" rerouteNo="0" devices="tripinfo_-E1__0__background.6" vType="background" speedFactor="0.85" vaporized=""/>
    <tripinfo id="E0__0__background.6" depart="31.00" departLane="E0_1" departPos="4.60" departSpeed="0.00" departDelay="2.21" arrival="82.00" arrivalLane="E1_2" arrivalPos="134.76" arrivalSpeed="12.68" duration="51.00" routeLength="276.28" waitingTime="18.00" waitingCount="1" stopTime="0.00" timeLoss="29.49" rerouteNo="0" devices="tripinfo_E0__0__background.6" vType="background" speedFactor="0.96" vaporized=""/>
    <tripinfo id="-E1__0__background.7" depart="47.00" departLane="-E1_3" departPos="4.60" departSpeed="0.00" departDelay="0.98" arrival="88.00" arrivalLane="E3_2" arrivalPos="113.06" arrivalSpeed="10.62" duration="41.00" routeLength="267.65" waitingTime="7.00" waitingCount="1" stopTime="0.00" timeLoss="15.62" rerouteNo="0" devices="tripinfo_-E1__0__background.7" vType="background" speedFactor="0.79" vaporized=""/>
    <tripinfo id="-E1__0__rescue.0" depart="52.00" departLane="-E1_3" departPos="5.10" departSpeed="0.00" departDelay="0.48" arrival="90.00" arrivalLane="E3_2" arrivalPos="113.06" arrivalSpeed="14.21" duration="38.00" routeLength="267.15" waitingTime="5.00" waitingCount="1" stopTime="0.00" timeLoss="23.36" rerouteNo="0" devices="tripinfo_-E1__0__rescue.0" vType="rescue" speedFactor="1.40" vaporized=""/>
    <tripinfo id="-E3__0__background.2" depart="21.00" departLane="-E3_3" departPos="4.60" departSpeed="0.00" departDelay="0.68" arrival="92.00" arrivalLane="-E2_2" arrivalPos="107.89" arrivalSpeed="14.04" duration="71.00" routeLength="243.42" waitingTime="36.00" waitingCount="2" stopTime="0.00" timeLoss="54.03" rerouteNo="0" devices="tripinfo_-E3__0__background.2" vType="background" speedFactor="1.05" vaporized=""/>
    <tripinfo id="E2__1__ego.0" depart="64.00" departLane="E2_2" departPos="4.60" departSpeed="0.00" departDelay="0.53" arrival="92.00" arrivalLane="-E0_1" arrivalPos="118.28" arrivalSpeed="12.86" duration="28.00" routeLength="232.95" waitingTime="2.00" waitingCount="1" stopTime="0.00" timeLoss="10.61" rerouteNo="0" devices="tripinfo_E2__1__ego.0" vType="ego" speedFactor="1.02" vaporized=""/>
    <tripinfo id="E2__0__ego.1" depart="34.00" departLane="E2_3" departPos="4.60" departSpeed="0.00" departDelay="0.34" arrival="94.00" arrivalLane="E3_2" arrivalPos="113.06" arrivalSpeed="10.88" duration="60.00" routeLength="243.41" waitingTime="26.00" waitingCount="2" stopTime="0.00" timeLoss="38.99" rerouteNo="0" devices="tripinfo_E2__0__ego.1" vType="ego" speedFactor="0.84" vaporized=""/>
    <tripinfo id="E2__0__background.4" depart="49.00" departLane="E2_2" departPos="4.60" departSpeed="0.00" departDelay="0.86" arrival="96.00" arrivalLane="E3_2" arrivalPos="113.06" arrivalSpeed="12.22" duration="47.00" routeLength="243.41" waitingTime="18.00" waitingCount="1" stopTime="0.00" timeLoss="27.66" rerouteNo="0" devices="tripinfo_E2__0__background.4" vType="background" speedFactor="0.92" vaporized=""/>
    <tripinfo id="-E3__0__background.4" depart="42.00" departLane="-E3_2" departPos="4.60" departSpeed="0.00" departDelay="0.70" arrival="97.00" arrivalLane="-E2_2" arrivalPos="107.89" arrivalSpeed="10.12" duration="55.00" routeLength="243.42" waitingTime="23.00" waitingCount="1" stopTime="0.00" timeLoss="32.20" rerouteNo="0" devices="tripinfo_-E3__0__background.4" vType="background" speedFactor="0.79" vaporized=""/>
    <tripinfo id="E2__1__background.1" depart="75.00" departLane="E2_3" departPos="4.60" departSpeed="0.00" departDelay="0.99" arrival="102.00" arrivalLane="E1_2" arrivalPos="134.76" arrivalSpeed="13.43" duration="27.00" routeLength="262.66" waitingTime="0.00" waitingCount="0" stopTime="0.00" timeLoss="8.25" rerouteNo="0" devices="tripinfo_E2__1__background.1" vType="background" speedFactor="1.04" vaporized=""/>
    <tripinfo id="-E3__1__background.4" depart="79.00" departLane="-E3_3" departPos="4.60" departSpeed="0.00" departDelay="0.16" arrival="103.00" arrivalLane="-E0_2" arrivalPos="118.28" arrivalSpeed="14.03" duration="24.00" routeLength="251.36" waitingTime="0.00" waitingCount="0" stopTime="0.00" timeLoss="6.05" rerouteNo="0" devices="tripinfo_-E3__1__background.4" vType="background" speedFactor="1.06" vaporized=""/>
    <tripinfo id="-E1__0__background.4" depart="17.00" departLane="-E1_1" departPos="4.60" departSpeed="0.00" departDelay="0.25" arrival="108.00" arrivalLane="-E2_1" arrivalPos="107.89" arrivalSpeed="14.57" duration="91.00" routeLength="250.13" waitingTime="50.00" waitingCount="3" stopTime="0.00" timeLoss="72.85" rerouteNo="0" devices="tripinfo_-E1__0__background.4" vType="background" speedFactor="1.07" vaporized=""/>
    <tripinfo id="-E1__0__ego.3" depart="50.00" departLane="-E1_1" departPos="4.60" departSpeed="0.00" departDelay="1.77" arrival="109.00" arrivalLane="-E0_2" arrivalPos="118.28" arrivalSpeed="14.67" duration="59.00" routeLength="276.29" waitingTime="24.00" waitingCount="2" stopTime="0.00" timeLoss="40.56" rerouteNo="0" devices="tripinfo_-E1__0__ego.3" vType="ego" speedFactor="1.08" vaporized=""/>
    <tripinfo id="E0__0__ego.3" depart="53.00" departLane="E0_2" departPos="4.60" departSpeed="0.00" departDelay="0.87" arrival="110.00" arrivalLane="E3_1" arrivalPos="113.06" arrivalSpeed="11.80" duration="57.00" routeLength="238.81" waitingTime="24.00" waitingCount="1" stopTime="0.00" timeLoss="36.21" rerouteNo="0" devices="tripinfo_E0__0__ego.3" vType="ego" speedFactor="0.89" vaporized=""/>
    <tripinfo id="E0__1__background.0" depart="65.00" departLane="E0_3" departPos="4.60" departSpeed="0.00" departDelay="0.46" arrival="111.00" arrivalLane="E3_1" arrivalPos="113.06" arrivalSpeed="13.09" duration="46.00" routeLength="238.81" waitingTime="17.00" waitingCount="1" stopTime="0.00" timeLoss="27.63" rerouteNo="0" devices="tripinfo_E0__1__background.0" vType="background" speedFactor="0.99" vaporized=""/>
    <tripinfo id="-E1__1__ego.1" depart="77.00" departLane="-E1_3" departPos="4.60" departSpeed="0.00" departDelay="0.54" arrival="111.00" arrivalLane="-E2_1" arrivalPos="107.89" arrivalSpeed="14.67" duration="34.00" routeLength="250.13" waitingTime="5.00" waitingCount="1" stopTime="0.00" timeLoss="16.44" rerouteNo="0" devices="tripinfo_-E1__1__ego.1" vType="ego" speedFactor="1.10" vaporized=""/>
    <tripinfo id="-E1__0__background.9" depart="55.00" departLane="-E1_3" departPos="4.60" departSpeed="0.00" departDelay="1.55" arrival="112.00" arrivalLane="-E0_2" arrivalPos="118.28" arrivalSpeed="13.58" duration="57.00" routeLength="276.29" waitingTime="23.00" waitingCount="1" stopTime="0.00" timeLoss="36.50" rerouteNo="0" devices="tripinfo_-E1__0__background.9" vType="background" speedFactor="1.01" vaporized=""/>
    <tripinfo id="E0__0__background.7" depart="37.00" departLane="E0_3" departPos="4.60" departSpeed="0.00" departDelay="0.21" arrival="113.00" arrivalLane="E1_2" arrivalPos="134.76" arrivalSpeed="10.29" duration="76.00" routeLength="276.28" waitingTime="38.00" waitingCount="2" stopTime="0.00" timeLoss="51.93" rerouteNo="0" devices="tripinfo_E0__0__background.7" vType="background" speedFactor="0.83" vaporized=""/>
    <tripinfo id="E0__0__background.8" depart="41.00" departLane="E0_1" departPos="4.60" departSpeed="0.00" departDelay="0.15" arrival="115.00" arrivalLane="E1_2" arrivalPos="134.76" arrivalSpeed="11.89" duration="74.00" routeLength="276.28" waitingTime="33.00" waitingCount="2" stopTime="0.00" timeLoss="51.15" rerouteNo="0" devices="tripinfo_E0__0__background.8" vType="background" speedFactor="0.89" vaporized=""/>
    <tripinfo id="-E1__0__background.10" depart="57.00" departLane="-E1_1" departPos="4.60" departSpeed="0.00" departDelay="0.85" arrival="118.00" arrivalLane="E3_2" arrivalPos="113.06" arrivalSpeed="14.63" duration="61.00" routeLength="267.65" waitingTime="24.00" waitingCount="2" stopTime="0.00" timeLoss="42.17" rerouteNo="0" devices="tripinfo_-E1__0__background.10" vType="background" speedFactor="1.17" vaporized=""/>
    <tripinfo id="E0__1__background.1" depart="87.00" departLane="E0_2" departPos="4.60" departSpeed="0.00" departDelay="0.77" arrival="118.00" arrivalLane="-E2_2" arrivalPos="107.89" arrivalSpeed="13.03" duration="31.00" routeLength="245.98" waitingTime="1.00" waitingCount="1" stopTime="0.00" timeLoss="12.04" rerouteNo="0" devices="tripinfo_E0__1__background.1" vType="background" speedFactor="0.99" vaporized=""/>
    <tripinfo id="-E1__1__background.1" depart="73.00" departLane="-E1_1" departPos="4.60" departSpeed="0.00" departDelay="0.59" arrival="121.00" arrivalLane="E3_2" arrivalPos="113.06" arrivalSpeed="14.49" duration="48.00" routeLength="267.65" waitingTime="16.00" waitingCount="1" stopTime="0.00" timeLoss="29.02" rerouteNo="0" devices="tripinfo_-E1__1__background.1" vType="background" speedFactor="1.08" vaporized=""/>
    <tripinfo id="E0__1__background.2" depart="87.00" departLane="E0_1" departPos="4.60" departSpeed="0.00" departDelay="0.60" arrival="121.00" arrivalLane="-E2_2" arrivalPos="107.89" arrivalSpeed="11.11" duration="34.00" routeLength="245.98" waitingTime="0.00" waitingCount="0" stopTime="0.00" timeLoss="11.83" rerouteNo="0" devices="tripinfo_E0__1__background.2" vType="background" speedFactor="0.84" vaporized=""/>
    <tripinfo id="-E3__1__ego.0" depart="61.00" departLane="-E3_3" departPos="4.60" departSpeed="0.00" departDelay="0.97" arrival="124.00" arrivalLane="-E2_2" arrivalPos="107.89" arrivalSpeed="13.66" duration="63.00" routeLength="243.42" waitingTime="33.00" waitingCount="2" stopTime="0.00" timeLoss="46.63" rerouteNo="0" devices="tripinfo_-E3__1__ego.0" vType="ego" speedFactor="1.07" vaporized=""/>
    <tripinfo id="E2__1__background.0" depart="62.00" departLane="E2_3" departPos="4.60" departSpeed="0.00" departDelay="0.28" arrival="125.00" arrivalLane="E3_2" arrivalPos="113.06" arrivalSpeed="13.09" duration="63.00" routeLength="243.41" waitingTime="32.00" waitingCount="2" stopTime="0.00" timeLoss="44.85" rerouteNo="0" devices="tripinfo_E2__1__background.0" vType="background" speedFactor="0.98" vaporized=""/>
    <tripinfo id="-E3__1__background.0" depart="70.00" departLane="-E3_1" departPos="4.60" departSpeed="0.00" departDelay="0.69" arrival="126.00" arrivalLane="-E2_2" arrivalPos="107.89" arrivalSpeed="14.45" duration="56.00" routeLength="243.42" waitingTime="23.00" waitingCount="1" stopTime="0.00" timeLoss="39.46" rerouteNo="0" devices="tripinfo_-E3__1__background.0" vType="background" speedFactor="1.07" vaporized=""/>
    <tripinfo id="E2__1__ego.1" depart="71.00" departLane="E2_3" departPos="4.60" departSpeed="0.00" departDelay="0.83" arrival="130.00" arrivalLane="E3_2" arrivalPos="113.06" arrivalSpeed="9.63" duration="59.00" routeLength="243.41" waitingTime="23.00" waitingCount="1" stopTime="0.00" timeLoss="35.35" rerouteNo="0" devices="tripinfo_E2__1__ego.1" vType="ego" speedFactor="0.75" vaporized=""/>
    <tripinfo id="-E3__1__background.8" depart="106.00" departLane="-E3_1" departPos="4.60" departSpeed="0.00" departDelay="0.10" arrival="130.00" arrivalLane="E1_1" arrivalPos="134.76" arrivalSpeed="13.78" duration="24.00" routeLength="254.61" waitingTime="0.00" waitingCount="0" stopTime="0.00" timeLoss="5.60" rerouteNo="0" devices="tripinfo_-E3__1__background.8" vType="background" speedFactor="1.05" vaporized=""/>
    <tripinfo id="-E3__1__background.5" depart="90.00" departLane="-E3_3" departPos="4.60" departSpeed="0.00" departDelay="0.17" arrival="135.00" arrivalLane="-E0_2" arrivalPos="118.28" arrivalSpeed="13.03" duration="45.00" routeLength="251.36" waitingTime="14.00" waitingCount="1" stopTime="0.00" timeLoss="25.10" rerouteNo="0" devices="tripinfo_-E3__1__background.5" vType="background" speedFactor="0.97" vaporized=""/>
    <tripinfo id="-E3__1__background.6" depart="103.00" departLane="-E3_3" departPos="4.60" departSpeed="0.00" departDelay="0.13" arrival="136.00" arrivalLane="-E0_2" arrivalPos="118.28" arrivalSpeed="14.48" duration="33.00" routeLength="251.36" waitingTime="3.00" waitingCount="1" stopTime="0.00" timeLoss="15.64" rerouteNo="0" devices="tripinfo_-E3__1__background.6" vType="background" speedFactor="1.08" vaporized=""/>
    <tripinfo id="-E1__1__ego.0" depart="62.00" departLane="-E1_1" departPos="4.60" departSpeed="0.00" departDelay="0.46" arrival="141.00" arrivalLane="-E0_2" arrivalPos="118.28" arrivalSpeed="13.42" duration="79.00" routeLength="276.29" waitingTime="44.00" waitingCount="2" stopTime="0.00" timeLoss="59.22" rerouteNo="0" devices="tripinfo_-E1__1__ego.0" vType="ego" speedFactor="1.02" vaporized=""/>
    <tripinfo id="E0__0__background.9" depart="45.00" departLane="E0_2" departPos="4.60" departSpeed="0.00" departDelay="0.54" arrival="142.00" arrivalLane="E1_2" arrivalPos="134.76" arrivalSpeed="13.43" duration="97.00" routeLength="276.28" waitingTime="56.00" waitingCount="3" stopTime="0.00" timeLoss="77.10" rerouteNo="0" devices="tripinfo_E0__0__background.9" vType="background" speedFactor="1.01" vaporized=""/>
    <tripinfo id="-E1__1__background.0" depart="64.00" departLane="-E1_3" departPos="4.60" departSpeed="0.00" departDelay="0.57" arrival="144.00" arrivalLane="-E0_2" arrivalPos="118.28" arrivalSpeed="13.48" duration="80.00" routeLength="276.29" waitingTime="43.00" waitingCount="2" stopTime="0.00" timeLoss="60.29" rerouteNo="0" devices="tripinfo_-E1__1__background.0" vType="background" speedFactor="1.05" vaporized=""/>
    <tripinfo id="E0__1__background.4" depart="120.00" departLane="E0_2" departPos="4.60" departSpeed="0.00" departDelay="0.22" arrival="144.00" arrivalLane="E3_1" arrivalPos="113.06" arrivalSpeed="13.63" duration="24.00" routeLength="238.81" waitingTime="0.00" waitingCount="0" stopTime="0.00" timeLoss="6.37" rerouteNo="0" devices="tripinfo_E0__1__background.4" vType="background" speedFactor="1.03" vaporized=""/>
    <tripinfo id="E0__0__ego.2" depart="48.00" departLane="E0_2" departPos="4.60" departSpeed="0.00" departDelay="0.08" arrival="146.00" arrivalLane="E1_2" arrivalPos="134.76" arrivalSpeed="10.99" duration="98.00" routeLength="276.28" waitingTime="53.00" waitingCount="3" stopTime="0.00" timeLoss="75.03" rerouteNo="0" devices="tripinfo_E0__0__ego.2" vType="ego" speedFactor="0.87" vaporized=""/>
    <tripinfo id="E0__1__background.3" depart="91.00" departLane="E0_1" departPos="4.60" departSpeed="0.00" departDelay="0.11" arrival="149.00" arrivalLane="-E2_2" arrivalPos="107.89" arrivalSpeed="14.79" duration="58.00" routeLength="245.98" waitingTime="25.00" waitingCount="1" stopTime="0.00" timeLoss="40.71" rerouteNo="0" devices="tripinfo_E0__1__background.3" vType="background" speedFactor="1.07" vaporized=""/>
    <tripinfo id="-E3__1__background.1" depart="72.00" departLane="-E3_3" departPos="4.60" departSpeed="0.00" departDelay="0.74" arrival="156.00" arrivalLane="-E2_2" arrivalPos="107.89" arrivalSpeed="13.87" duration="84.00" routeLength="243.42" waitingTime="47.00" waitingCount="2" stopTime="0.00" timeLoss="67.10" rerouteNo="0" devices="tripinfo_-E3__1__background.1" vType="background" speedFactor="1.08" vaporized=""/>
    <tripinfo id="E2__1__ego.2" depart="73.00" departLane="E2_1" departPos="4.60" departSpeed="0.00" departDelay="0.71" arrival="156.00" arrivalLane="E3_2" arrivalPos="113.06" arrivalSpeed="14.43" duration="83.00" routeLength="243.41" waitingTime="48.00" waitingCount="2" stopTime="0.00" timeLoss="67.07" rerouteNo="0" devices="tripinfo_E2__1__ego.2" vType="ego" speedFactor="1.10" vaporized=""/>
    <tripinfo id="-E3__1__background.2" depart="76.00" departLane="-E3_3" departPos="4.60" departSpeed="0.00" departDelay="0.92" arrival="158.00" arrivalLane="-E2_2" arrivalPos="107.89" arrivalSpeed="14.29" duration="82.00" routeLength="243.42" waitingTime="46.00" waitingCount="2" stopTime="0.00" timeLoss="64.76" rerouteNo="0" devices="tripinfo_-E3__1__background.2" vType="background" speedFactor="1.06" vaporized=""/>
    <tripinfo id="-E3__1__background.10" depart="115.00" departLane="-E3_2" departPos="4.60" departSpeed="0.00" departDelay="1.53" arrival="158.00" arrivalLane="E1_1" arrivalPos="134.76" arrivalSpeed="12.79" duration="43.00" routeLength="254.61" waitingTime="13.00" waitingCount="1" stopTime="0.00" timeLoss="23.18" rerouteNo="0" devices="tripinfo_-E3__1__background.10" vType="background" speedFactor="0.99" vaporized=""/>
    <tripinfo id="E2__1__background.2" depart="84.00" departLane="E2_1" departPos="4.60" departSpeed="0.00" departDelay="0.84" arrival="159.00" arrivalLane="E3_2" arrivalPos="113.06" arrivalSpeed="13.37" duration="75.00" routeLength="243.41" waitingTime="41.00" waitingCount="2" stopTime="0.00" timeLoss="56.63" rerouteNo="0" devices="tripinfo_E2__1__background.2" vType="background" speedFactor="0.97" vaporized=""/>
    <tripinfo id="-E3__1__ego.3" depart="119.00" departLane="-E3_1" departPos="4.60" departSpeed="0.00" departDelay="1.11" arrival="160.00" arrivalLane="E1_1" arrivalPos="134.76" arrivalSpeed="12.96" duration="41.00" routeLength="254.61" waitingTime="10.00" waitingCount="1" stopTime="0.00" timeLoss="21.81" rerouteNo="0" devices="tripinfo_-E3__1__ego.3" vType="ego" speedFactor="1.02" vaporized=""/>