<?xml version="1.0" encoding="UTF-8"?>

<!-- generated on 2023-12-01 14:34:04 by Eclipse SUMO GUI Version 1.18.0
<configuration xmlns:xsi="http://www.w3.org/2001/XMLSchema-instance" xsi:noNamespaceSchemaLocation="http://sumo.dlr.de/xsd/sumoConfiguration.xsd">

    <input>
        <net-file value="/home/wmn/TrafficAlpha/TSC-LLM/TSCRL/../TSCScenario/3way/env/3way.net.xml"/>
        <route-files value="/home/wmn/TrafficAlpha/TSC-LLM/TSCRL/../TSCScenario/3way/env/../routes/vehicle.rou.xml"/>
        <additional-files value="/home/wmn/TrafficAlpha/TSC-LLM/TSCRL/../TSCScenario/3way/env/../add/tls.add.xml,/home/wmn/TrafficAlpha/TSC-LLM/TSCRL/../TSCScenario/3way/env/ ../add/e2.add.xml"/>
    </input>

    <output>
        <tripinfo-output value="/home/wmn/TrafficAlpha/TSC-LLM/TSCRL/./3way_choose_next_phase.tripinfo.xml"/>
    </output>

    <processing>
        <time-to-teleport value="-1"/>
        <waiting-time-memory value="10000"/>
        <max-depart-delay value="100000"/>
    </processing>

    <report>
        <no-warnings value="true"/>
        <no-step-log value="true"/>
    </report>

    <traci_server>
        <remote-port value="48623"/>
    </traci_server>

    <random_number>
        <random value="true"/>
    </random_number>

    <gui_only>
        <quit-on-end value="true"/>
        <start value="true"/>
    </gui_only>

</configuration>
-->

<tripinfos xmlns:xsi="http://www.w3.org/2001/XMLSchema-instance" xsi:noNamespaceSchemaLocation="http://sumo.dlr.de/xsd/tripinfo_file.xsd">
    <tripinfo id="E0__0__background.0" depart="4.00" departLane="E0_1" departPos="4.60" departSpeed="0.00" departDelay="0.42" arrival="25.00" arrivalLane="E1_1" arrivalPos="110.26" arrivalSpeed="14.92" duration="21.00" routeLength="241.93" waitingTime="0.00" waitingCount="0" stopTime="0.00" timeLoss="3.96" rerouteNo="0" devices="tripinfo_E0__0__background.0" vType="background" speedFactor="1.15" vaporized=""/>
    <tripinfo id="-E1__0__ego.0" depart="1.00" departLane="-E1_1" departPos="4.60" departSpeed="0.00" departDelay="0.16" arrival="31.00" arrivalLane="-E0_1" arrivalPos="112.16" arrivalSpeed="14.19" duration="30.00" routeLength="241.66" waitingTime="4.00" waitingCount="1" stopTime="0.00" timeLoss="14.11" rerouteNo="0" devices="tripinfo_-E1__0__ego.0" vType="ego" speedFactor="1.11" vaporized=""/>
    <tripinfo id="-E1__0__background.0" depart="5.00" departLane="-E1_3" departPos="4.60" departSpeed="0.00" departDelay="0.84" arrival="31.00" arrivalLane="-E0_2" arrivalPos="112.16" arrivalSpeed="13.73" duration="26.00" routeLength="241.66" waitingTime="0.00" waitingCount="0" stopTime="0.00" timeLoss="9.72" rerouteNo="0" devices="tripinfo_-E1__0__background.0" vType="background" speedFactor="1.11" vaporized=""/>
    <tripinfo id="-E1__0__background.2" depart="8.00" departLane="-E1_2" departPos="4.60" departSpeed="0.00" departDelay="0.05" arrival="33.00" arrivalLane="-E0_2" arrivalPos="112.16" arrivalSpeed="14.63" duration="25.00" routeLength="241.66" waitingTime="0.00" waitingCount="0" stopTime="0.00" timeLoss="8.24" rerouteNo="0" devices="tripinfo_-E1__0__background.2" vType="background" speedFactor="1.07" vaporized=""/>
    <tripinfo id="-E1__0__background.1" depart="6.00" departLane="-E1_1" departPos="4.60" departSpeed="0.00" departDelay="0.01" arrival="34.00" arrivalLane="-E0_1" arrivalPos="112.16" arrivalSpeed="13.46" duration="28.00" routeLength="241.66" waitingTime="1.00" waitingCount="1" stopTime="0.00" timeLoss="9.57" rerouteNo="0" devices="tripinfo_-E1__0__background.1" vType="background" speedFactor="0.99" vaporized=""/>
    <tripinfo id="E0__0__background.2" depart="10.00" departLane="E0_1" departPos="4.60" departSpeed="0.00" departDelay="3.20" arrival="39.00" arrivalLane="-E2_2" arrivalPos="83.27" arrivalSpeed="14.54" duration="29.00" routeLength="215.15" waitingTime="3.00" waitingCount="1" stopTime="0.00" timeLoss="13.21" rerouteNo="0" devices="tripinfo_E0__0__background.2" vType="background" speedFactor="1.07" vaporized=""/>
    <tripinfo id="E0__0__background.4" depart="12.00" departLane="E0_3" departPos="4.60" departSpeed="0.00" departDelay="0.97" arrival="40.00" arrivalLane="E1_2" arrivalPos="110.26" arrivalSpeed="13.38" duration="28.00" routeLength="241.93" waitingTime="1.00" waitingCount="1" stopTime="0.00" timeLoss="9.99" rerouteNo="0" devices="tripinfo_E0__0__background.4" vType="background" speedFactor="1.01" vaporized=""/>
    <tripinfo id="E0__0__background.1" depart="7.00" departLane="E0_1" departPos="4.60" departSpeed="0.00" departDelay="0.46" arrival="41.00" arrivalLane="E1_1" arrivalPos="110.26" arrivalSpeed="11.11" duration="34.00" routeLength="241.93" waitingTime="4.00" waitingCount="1" stopTime="0.00" timeLoss="13.28" rerouteNo="0" devices="tripinfo_E0__0__background.1" vType="background" speedFactor="0.87" vaporized=""/>
    <tripinfo id="E0__0__background.3" depart="12.00" departLane="E0_1" departPos="4.60" departSpeed="0.00" departDelay="1.12" arrival="42.00" arrivalLane="E1_1" arrivalPos="110.26" arrivalSpeed="13.21" duration="30.00" routeLength="241.93" waitingTime="2.00" waitingCount="1" stopTime="0.00" timeLoss="12.18" rerouteNo="0" devices="tripinfo_E0__0__background.3" vType="background" speedFactor="0.99" vaporized=""/>
    <tripinfo id="E0__0__background.5" depart="13.00" departLane="E0_2" departPos="4.60" departSpeed="0.00" departDelay="0.68" arrival="42.00" arrivalLane="E1_2" arrivalPos="110.26" arrivalSpeed="11.82" duration="29.00" routeLength="241.93" waitingTime="0.00" waitingCount="0" stopTime="0.00" timeLoss="9.94" rerouteNo="0" devices="tripinfo_E0__0__background.5" vType="background" speedFactor="0.94" vaporized=""/>
    <tripinfo id="E2__0__background.2" depart="11.00" departLane="E2_3" departPos="4.60" departSpeed="0.00" departDelay="0.18" arrival="47.00" arrivalLane="E1_2" arrivalPos="110.26" arrivalSpeed="14.27" duration="36.00" routeLength="210.29" waitingTime="9.00" waitingCount="1" stopTime="0.00" timeLoss="21.27" rerouteNo="0" devices="tripinfo_E2__0__background.2" vType="background" speedFactor="1.09" vaporized=""/>
    <tripinfo id="E2__0__background.0" depart="6.00" departLane="E2_1" departPos="4.60" departSpeed="0.00" departDelay="0.32" arrival="49.00" arrivalLane="-E0_1" arrivalPos="112.16" arrivalSpeed="11.42" duration="43.00" routeLength="201.84" waitingTime="16.00" waitingCount="1" stopTime="0.00" timeLoss="24.64" rerouteNo="0" devices="tripinfo_E2__0__background.0" vType="background" speedFactor="0.85" vaporized=""/>
    <tripinfo id="E2__0__background.1" depart="8.00" departLane="E2_3" departPos="4.60" departSpeed="0.00" departDelay="0.29" arrival="49.00" arrivalLane="E1_1" arrivalPos="110.26" arrivalSpeed="14.53" duration="41.00" routeLength="215.24" waitingTime="15.00" waitingCount="1" stopTime="0.00" timeLoss="25.71" rerouteNo="0" devices="tripinfo_E2__0__background.1" vType="background" speedFactor="1.20" vaporized=""/>
    <tripinfo id="E2__0__ego.0" depart="20.00" departLane="E2_1" departPos="4.60" departSpeed="0.00" departDelay="0.72" arrival="50.00" arrivalLane="E1_1" arrivalPos="110.26" arrivalSpeed="13.89" duration="30.00" routeLength="215.24" waitingTime="4.00" waitingCount="1" stopTime="0.00" timeLoss="15.16" rerouteNo="0" devices="tripinfo_E2__0__ego.0" vType="ego" speedFactor="1.08" vaporized=""/>
    <tripinfo id="E2__0__ego.1" depart="21.00" departLane="E2_2" departPos="4.60" departSpeed="0.00" departDelay="0.68" arrival="50.00" arrivalLane="E1_2" arrivalPos="110.26" arrivalSpeed="12.48" duration="29.00" routeLength="210.29" waitingTime="4.00" waitingCount="1" stopTime="0.00" timeLoss="12.06" rerouteNo="0" devices="tripinfo_E2__0__ego.1" vType="ego" speedFactor="0.95" vaporized=""/>
    <tripinfo id="-E1__0__ego.3" depart="24.00" departLane="-E1_3" departPos="4.60" departSpeed="0.00" departDelay="0.65" arrival="53.00" arrivalLane="-E2_1" arrivalPos="83.27" arrivalSpeed="12.22" duration="29.00" routeLength="197.80" waitingTime="4.00" waitingCount="1" stopTime="0.00" timeLoss="12.98" rerouteNo="0" devices="tripinfo_-E1__0__ego.3" vType="ego" speedFactor="0.97" vaporized=""/>
    <tripinfo id="-E1__0__ego.1" depart="16.00" departLane="-E1_2" departPos="4.60" departSpeed="0.00" departDelay="0.32" arrival="55.00" arrivalLane="-E0_1" arrivalPos="112.16" arrivalSpeed="13.68" duration="39.00" routeLength="241.66" waitingTime="12.00" waitingCount="1" stopTime="0.00" timeLoss="21.54" rerouteNo="0" devices="tripinfo_-E1__0__ego.1" vType="ego" speedFactor="1.00" vaporized=""/>
    <tripinfo id="-E1__0__background.4" depart="29.00" departLane="-E1_1" departPos="4.60" departSpeed="0.00" departDelay="0.71" arrival="55.00" arrivalLane="-E2_1" arrivalPos="83.27" arrivalSpeed="13.78" duration="26.00" routeLength="197.80" waitingTime="0.00" waitingCount="0" stopTime="0.00" timeLoss="11.28" rerouteNo="0" devices="tripinfo_-E1__0__background.4" vType="background" speedFactor="1.05" vaporized=""/>
    <tripinfo id="-E1__0__ego.2" depart="17.00" departLane="-E1_1" departPos="4.60" departSpeed="0.00" departDelay="0.25" arrival="57.00" arrivalLane="-E0_2" arrivalPos="112.16" arrivalSpeed="12.28" duration="40.00" routeLength="241.66" waitingTime="8.00" waitingCount="1" stopTime="0.00" timeLoss="19.60" rerouteNo="0" devices="tripinfo_-E1__0__ego.2" vType="ego" speedFactor="0.89" vaporized=""/>
    <tripinfo id="-E1__0__background.5" depart="32.00" departLane="-E1_2" departPos="4.60" departSpeed="0.00" departDelay="0.92" arrival="58.00" arrivalLane="-E0_2" arrivalPos="112.16" arrivalSpeed="12.49" duration="26.00" routeLength="241.66" waitingTime="0.00" waitingCount="0" stopTime="0.00" timeLoss="7.58" rerouteNo="0" devices="tripinfo_-E1__0__background.5" vType="background" speedFactor="0.95" vaporized=""/>
    <tripinfo id="-E1__0__background.6" depart="34.00" departLane="-E1_3" departPos="4.60" departSpeed="0.00" departDelay="0.34" arrival="58.00" arrivalLane="-E2_1" arrivalPos="83.27" arrivalSpeed="13.35" duration="24.00" routeLength="197.80" waitingTime="0.00" waitingCount="0" stopTime="0.00" timeLoss="8.64" rerouteNo="0" devices="tripinfo_-E1__0__background.6" vType="background" speedFactor="0.99" vaporized=""/>
    <tripinfo id="-E1__0__background.3" depart="26.00" departLane="-E1_1" departPos="4.60" departSpeed="0.00" departDelay="0.78" arrival="59.00" arrivalLane="-E0_1" arrivalPos="112.16" arrivalSpeed="11.59" duration="33.00" routeLength="241.66" waitingTime="3.00" waitingCount="1" stopTime="0.00" timeLoss="13.03" rerouteNo="0" devices="tripinfo_-E1__0__background.3" vType="background" speedFactor="0.91" vaporized=""/>
    <tripinfo id="E0__0__background.9" depart="29.00" departLane="E0_2" departPos="4.60" departSpeed="0.00" departDelay="0.21" arrival="63.00" arrivalLane="-E2_2" arrivalPos="83.27" arrivalSpeed="12.29" duration="34.00" routeLength="215.15" waitingTime="7.00" waitingCount="1" stopTime="0.00" timeLoss="16.33" rerouteNo="0" devices="tripinfo_E0__0__background.9" vType="background" speedFactor="0.95" vaporized=""/>
    <tripinfo id="E0__0__ego.0" depart="16.00" departLane="E0_3" departPos="4.60" departSpeed="0.00" departDelay="0.07" arrival="64.00" arrivalLane="E1_2" arrivalPos="110.26" arrivalSpeed="12.61" duration="48.00" routeLength="241.93" waitingTime="16.00" waitingCount="1" stopTime="0.00" timeLoss="28.99" rerouteNo="0" devices="tripinfo_E0__0__ego.0" vType="ego" speedFactor="0.94" vaporized=""/>
    <tripinfo id="E0__0__background.6" depart="19.00" departLane="E0_1" departPos="4.60" departSpeed="0.00" departDelay="1.63" arrival="64.00" arrivalLane="E1_1" arrivalPos="110.26" arrivalSpeed="12.74" duration="45.00" routeLength="241.93" waitingTime="16.00" waitingCount="1" stopTime="0.00" timeLoss="26.37" rerouteNo="0" devices="tripinfo_E0__0__background.6" vType="background" speedFactor="0.95" vaporized=""/>
    <tripinfo id="E0__0__rescue.0" depart="40.00" departLane="E0_3" departPos="5.10" departSpeed="0.00" departDelay="0.85" arrival="64.00" arrivalLane="-E2_2" arrivalPos="83.27" arrivalSpeed="16.02" duration="24.00" routeLength="214.65" waitingTime="0.00" waitingCount="0" stopTime="0.00" timeLoss="13.91" rerouteNo="0" devices="tripinfo_E0__0__rescue.0" vType="rescue" speedFactor="1.60" vaporized=""/>
    <tripinfo id="E0__0__background.7" depart="26.00" departLane="E0_3" departPos="4.60" departSpeed="0.00" departDelay="0.10" arrival="66.00" arrivalLane="E1_2" arrivalPos="110.26" arrivalSpeed="12.69" duration="40.00" routeLength="241.93" waitingTime="12.00" waitingCount="1" stopTime="0.00" timeLoss="21.07" rerouteNo="0" devices="tripinfo_E0__0__background.7" vType="background" speedFactor="0.94" vaporized=""/>
    <tripinfo id="E0__0__background.8" depart="27.00" departLane="E0_2" departPos="4.60" departSpeed="0.00" departDelay="0.30" arrival="66.00" arrivalLane="E1_1" arrivalPos="110.26" arrivalSpeed="14.61" duration="39.00" routeLength="241.93" waitingTime="11.00" waitingCount="1" stopTime="0.00" timeLoss="22.07" rerouteNo="0" devices="tripinfo_E0__0__background.8" vType="background" speedFactor="1.08" vaporized=""/>
    <tripinfo id="E0__0__ego.2" depart="41.00" departLane="E0_1" departPos="4.60" departSpeed="0.00" departDelay="0.46" arrival="68.00" arrivalLane="E1_2" arrivalPos="110.26" arrivalSpeed="13.78" duration="27.00" routeLength="241.93" waitingTime="0.00" waitingCount="0" stopTime="0.00" timeLoss="8.98" rerouteNo="0" devices="tripinfo_E0__0__ego.2" vType="ego" speedFactor="1.02" vaporized=""/>
    <tripinfo id="E0__0__ego.1" depart="37.00" departLane="E0_1" departPos="4.60" departSpeed="0.00" departDelay="0.21" arrival="69.00" arrivalLane="E1_1" arrivalPos="110.26" arrivalSpeed="10.93" duration="32.00" routeLength="241.93" waitingTime="1.00" waitingCount="1" stopTime="0.00" timeLoss="11.25" rerouteNo="0" devices="tripinfo_E0__0__ego.1" vType="ego" speedFactor="0.87" vaporized=""/>
    <tripinfo id="E0__0__background.10" depart="43.00" departLane="E0_2" departPos="4.60" departSpeed="0.00" departDelay="2.15" arrival="69.00" arrivalLane="E1_2" arrivalPos="110.26" arrivalSpeed="13.92" duration="26.00" routeLength="241.93" waitingTime="0.00" waitingCount="0" stopTime="0.00" timeLoss="9.65" rerouteNo="0" devices="tripinfo_E0__0__background.10" vType="background" speedFactor="1.12" vaporized=""/>
    <tripinfo id="E0__0__background.11" depart="46.00" departLane="E0_1" departPos="4.60" departSpeed="0.00" departDelay="1.54" arrival="70.00" arrivalLane="E1_1" arrivalPos="110.26" arrivalSpeed="13.19" duration="24.00" routeLength="241.93" waitingTime="0.00" waitingCount="0" stopTime="0.00" timeLoss="7.74" rerouteNo="0" devices="tripinfo_E0__0__background.11" vType="background" speedFactor="1.08" vaporized=""/>
    <tripinfo id="E0__0__ego.3" depart="48.00" departLane="E0_3" departPos="4.60" departSpeed="0.00" departDelay="0.08" arrival="71.00" arrivalLane="E1_2" arrivalPos="110.26" arrivalSpeed="15.36" duration="23.00" routeLength="241.93" waitingTime="0.00" waitingCount="0" stopTime="0.00" timeLoss="7.44" rerouteNo="0" devices="tripinfo_E0__0__ego.3" vType="ego" speedFactor="1.16" vaporized=""/>
    <tripinfo id="E2__0__background.3" depart="36.00" departLane="E2_2" departPos="4.60" departSpeed="0.00" departDelay="0.09" arrival="76.00" arrivalLane="-E0_1" arrivalPos="112.16" arrivalSpeed="13.69" duration="40.00" routeLength="201.84" waitingTime="17.00" waitingCount="1" stopTime="0.00" timeLoss="24.59" rerouteNo="0" devices="tripinfo_E2__0__background.3" vType="background" speedFactor="1.02" vaporized=""/>
    <tripinfo id="E2__0__background.5" depart="49.00" departLane="E2_1" departPos="4.60" departSpeed="0.00" departDelay="0.77" arrival="77.00" arrivalLane="E1_2" arrivalPos="110.26" arrivalSpeed="12.65" duration="28.00" routeLength="210.29" waitingTime="1.00" waitingCount="1" stopTime="0.00" timeLoss="11.48" rerouteNo="0" devices="tripinfo_E2__0__background.5" vType="background" speedFactor="0.99" vaporized=""/>
    <tripinfo id="E2__0__ego.2" depart="27.00" departLane="E2_2" departPos="4.60" departSpeed="0.00" departDelay="0.05" arrival="78.00" arrivalLane="E1_1" arrivalPos="110.26" arrivalSpeed="14.97" duration="51.00" routeLength="215.24" waitingTime="21.00" waitingCount="1" stopTime="0.00" timeLoss="35.73" rerouteNo="0" devices="tripinfo_E2__0__ego.2" vType="ego" speedFactor="1.11" vaporized=""/>
    <tripinfo id="E2__0__background.4" depart="42.00" departLane="E2_1" departPos="4.60" departSpeed="0.00" departDelay="0.70" arrival="80.00" arrivalLane="-E0_1" arrivalPos="112.16" arrivalSpeed="11.25" duration="38.00" routeLength="201.84" waitingTime="10.00" waitingCount="1" stopTime="0.00" timeLoss="19.74" rerouteNo="0" devices="tripinfo_E2__0__background.4" vType="background" speedFactor="0.85" vaporized=""/>
    <tripinfo id="E2__0__background.6" depart="57.00" departLane="E2_3" departPos="4.60" departSpeed="0.00" departDelay="0.85" arrival="80.00" arrivalLane="E1_2" arrivalPos="110.26" arrivalSpeed="14.85" duration="23.00" routeLength="210.29" waitingTime="0.00" waitingCount="0" stopTime="0.00" timeLoss="7.54" rerouteNo="0" devices="tripinfo_E2__0__background.6" vType="background" speedFactor="1.17" vaporized=""/>
    <tripinfo id="-E1__0__ego.4" depart="47.00" departLane="-E1_3" departPos="4.60" departSpeed="0.00" departDelay="0.98" arrival="82.00" arrivalLane="-E2_1" arrivalPos="83.27" arrivalSpeed="11.95" duration="35.00" routeLength="197.80" waitingTime="12.00" waitingCount="1" stopTime="0.00" timeLoss="18.79" rerouteNo="0" devices="tripinfo_-E1__0__ego.4" vType="ego" speedFactor="0.95" vaporized=""/>
    <tripinfo id="-E1__0__background.8" depart="44.00" departLane="-E1_3" departPos="4.60" departSpeed="0.00" departDelay="0.81" arrival="84.00" arrivalLane="-E0_1" arrivalPos="112.16" arrivalSpeed="14.46" duration="40.00" routeLength="241.66" waitingTime="13.00" waitingCount="1" stopTime="0.00" timeLoss="23.42" rerouteNo="0" devices="tripinfo_-E1__0__background.8" vType="background" speedFactor="1.09" vaporized=""/>
    <tripinfo id="-E1__0__background.9" depart="47.00" departLane="-E1_1" departPos="4.60" departSpeed="0.00" departDelay="0.98" arrival="86.00" arrivalLane="-E0_1" arrivalPos="112.16" arrivalSpeed="11.55" duration="39.00" routeLength="241.66" waitingTime="7.00" waitingCount="1" stopTime="0.00" timeLoss="18.53" rerouteNo="0" devices="tripinfo_-E1__0__background.9" vType="background" speedFactor="0.88" vaporized=""/>
    <tripinfo id="-E1__0__background.10" depart="50.00" departLane="-E1_2" departPos="4.60" departSpeed="0.00" departDelay="1.86" arrival="86.00" arrivalLane="-E0_2" arrivalPos="112.16" arrivalSpeed="14.80" duration="36.00" routeLength="241.66" waitingTime="10.00" waitingCount="1" stopTime="0.00" timeLoss="19.48" rerouteNo="0" devices="tripinfo_-E1__0__background.10" vType="background" speedFactor="1.09" vaporized=""/>
    <tripinfo id="-E1__0__background.12" depart="54.00" departLane="-E1_2" departPos="4.60" departSpeed="0.00" departDelay="0.55" arrival="87.00" arrivalLane="-E0_1" arrivalPos="112.16" arrivalSpeed="11.77" duration="33.00" routeLength="241.66" waitingTime="4.00" waitingCount="1" stopTime="0.00" timeLoss="13.47" rerouteNo="0" devices="tripinfo_-E1__0__background.12" vType="background" speedFactor="0.89" vaporized=""/>
    <tripinfo id="-E1__0__background.11" depart="53.00" departLane="-E1_3" departPos="4.60" departSpeed="0.00" departDelay="1.48" arrival="91.00" arrivalLane="-E0_2" arrivalPos="112.16" arrivalSpeed="10.75" duration="38.00" routeLength="241.66" waitingTime="7.00" waitingCount="1" stopTime="0.00" timeLoss="16.58" rerouteNo="0" devices="tripinfo_-E1__0__background.11" vType="background" speedFactor="0.84" vaporized=""/>
    <tripinfo id="-E1__1__background.0" depart="62.00" departLane="-E1_2" departPos="4.60" departSpeed="0.00" departDelay="0.28" arrival="91.00" arrivalLane="-E0_1" arrivalPos="112.16" arrivalSpeed="10.64" duration="29.00" routeLength="241.66" waitingTime="0.00" waitingCount="0" stopTime="0.00" timeLoss="6.87" rerouteNo="0" devices="tripinfo_-E1__1__background.0" vType="background" speedFactor="0.82" vaporized=""/>
    <tripinfo id="-E1__1__ego.0" depart="64.00" departLane="-E1_1" departPos="4.60" departSpeed="0.00" departDelay="0.53" arrival="92.00" arrivalLane="-E0_1" arrivalPos="112.16" arrivalSpeed="12.29" duration="28.00" routeLength="241.66" waitingTime="0.00" waitingCount="0" stopTime="0.00" timeLoss="10.47" rerouteNo="0" devices="tripinfo_-E1__1__ego.0" vType="ego" speedFactor="1.00" vaporized=""/>
    <tripinfo id="-E1__1__ego.1" depart="71.00" departLane="-E1_1" departPos="4.60" departSpeed="0.00" departDelay="0.83" arrival="94.00" arrivalLane="-E0_1" arrivalPos="112.16" arrivalSpeed="13.37" duration="23.00" routeLength="241.66" waitingTime="0.00" waitingCount="0" stopTime="0.00" timeLoss="5.43" rerouteNo="0" devices="tripinfo_-E1__1__ego.1" vType="ego" speedFactor="1.01" vaporized=""/>
    <tripinfo id="E0__0__ego.4" depart="53.00" departLane="E0_1" departPos="4.60" departSpeed="0.00" departDelay="0.87" arrival="98.00" arrivalLane="E1_1" arrivalPos="110.26" arrivalSpeed="12.91" duration="45.00" routeLength="241.93" waitingTime="17.00" waitingCount="1" stopTime="0.00" timeLoss="26.98" rerouteNo="0" devices="tripinfo_E0__0__ego.4" vType="ego" speedFactor="1.01" vaporized=""/>
    <tripinfo id="E0__1__background.1" depart="65.00" departLane="E0_2" departPos="4.60" departSpeed="0.00" departDelay="0.46" arrival="99.00" arrivalLane="E1_1" arrivalPos="110.26" arrivalSpeed="14.41" duration="34.00" routeLength="241.93" waitingTime="3.00" waitingCount="1" stopTime="0.00" timeLoss="17.61" rerouteNo="0" devices="tripinfo_E0__1__background.1" vType="background" speedFactor="1.09" vaporized=""/>
    <tripinfo id="E0__0__background.12" depart="55.00" departLane="E0_3" departPos="4.60" departSpeed="0.00" departDelay="0.06" arrival="101.00" arrivalLane="E1_2" arrivalPos="110.26" arrivalSpeed="9.83" duration="46.00" routeLength="241.93" waitingTime="14.00" waitingCount="1" stopTime="0.00" timeLoss="22.06" rerouteNo="0" devices="tripinfo_E0__0__background.12" vType="background" speedFactor="0.76" vaporized=""/>
    <tripinfo id="E0__1__background.0" depart="61.00" departLane="E0_3" departPos="4.60" departSpeed="0.00" departDelay="0.97" arrival="102.00" arrivalLane="E1_2" arrivalPos="110.26" arrivalSpeed="10.23" duration="41.00" routeLength="241.93" waitingTime="10.00" waitingCount="1" stopTime="0.00" timeLoss="21.61" rerouteNo="0" devices="tripinfo_E0__1__background.0" vType="background" speedFactor="0.90" vaporized=""/>
    <tripinfo id="E2__1__ego.0" depart="72.00" departLane="E2_3" departPos="4.60" departSpeed="0.00" departDelay="0.74" arrival="105.00" arrivalLane="E1_2" arrivalPos="110.26" arrivalSpeed="14.52" duration="33.00" routeLength="210.29" waitingTime="8.00" waitingCount="1" stopTime="0.00" timeLoss="18.09" rerouteNo="0" devices="tripinfo_E2__1__ego.0" vType="ego" speedFactor="1.08" vaporized=""/>
    <tripinfo id="E2__1__background.0" depart="62.00" departLane="E2_2" departPos="4.60" departSpeed="0.00" departDelay="0.46" arrival="106.00" arrivalLane="-E0_1" arrivalPos="112.16" arrivalSpeed="12.90" duration="44.00" routeLength="201.84" waitingTime="18.00" waitingCount="1" stopTime="0.00" timeLoss="27.34" rerouteNo="0" devices="tripinfo_E2__1__background.0" vType="background" speedFactor="0.96" vaporized=""/>
    <tripinfo id="E2__1__background.1" depart="65.00" departLane="E2_1" departPos="4.60" departSpeed="0.00" departDelay="1.57" arrival="107.00" arrivalLane="E1_1" arrivalPos="110.26" arrivalSpeed="13.13" duration="42.00" routeLength="215.24" waitingTime="15.00" waitingCount="1" stopTime="0.00" timeLoss="25.57" rerouteNo="0" devices="tripinfo_E2__1__background.1" vType="background" speedFactor="1.01" vaporized=""/>
    <tripinfo id="E2__1__background.3" depart="75.00" departLane="E2_1" departPos="4.60" departSpeed="0.00" departDelay="1.33" arrival="107.00" arrivalLane="-E0_1" arrivalPos="112.16" arrivalSpeed="13.97" duration="32.00" routeLength="201.84" waitingTime="7.00" waitingCount="1" stopTime="0.00" timeLoss="17.39" rerouteNo="0" devices="tripinfo_E2__1__background.3" vType="background" speedFactor="1.06" vaporized=""/>
    <tripinfo id="E2__1__ego.1" depart="76.00" departLane="E2_3" departPos="4.60" departSpeed="0.00" departDelay="0.92" arrival="109.00" arrivalLane="E1_2" arrivalPos="110.26" arrivalSpeed="14.66" duration="33.00" routeLength="210.29" waitingTime="6.00" waitingCount="1" stopTime="0.00" timeLoss="17.37" rerouteNo="0" devices="tripinfo_E2__1__ego.1" vType="ego" speedFactor="1.06" vaporized=""/>
    <tripinfo id="E2__1__background.2" depart="73.00" departLane="E2_2" departPos="4.60" departSpeed="0.00" departDelay="0.59" arrival="110.00" arrivalLane="E1_1" arrivalPos="110.26" arrivalSpeed="12.19" duration="37.00" routeLength="215.24" waitingTime="10.00" waitingCount="1" stopTime="0.00" timeLoss="18.48" rerouteNo="0" devices="tripinfo_E2__1__background.2" vType="background" speedFactor="0.91" vaporized=""/>
    <tripinfo id="E2__1__background.5" depart="79.00" departLane="E2_3" departPos="4.60" departSpeed="0.00" departDelay="2.54" arrival="110.00" arrivalLane="E1_2" arrivalPos="110.26" arrivalSpeed="14.59" duration="31.00" routeLength="210.29" waitingTime="5.00" waitingCount="1" stopTime="0.00" timeLoss="16.27" rerouteNo="0" devices="tripinfo_E2__1__background.5" vType="background" speedFactor="1.12" vaporized=""/>
    <tripinfo id="E2__1__background.9" depart="90.00" departLane="E2_3" departPos="4.60" departSpeed="0.00" departDelay="0.17" arrival="110.00" arrivalLane="-E0_1" arrivalPos="112.16" arrivalSpeed="14.83" duration="20.00" routeLength="201.84" waitingTime="0.00" waitingCount="0" stopTime="0.00" timeLoss="5.23" rerouteNo="0" devices="tripinfo_E2__1__background.9" vType="background" speedFactor="1.12" vaporized=""/>
    <tripinfo id="E2__1__background.7" depart="81.00" departLane="E2_2" departPos="4.60" departSpeed="0.00" departDelay="2.16" arrival="112.00" arrivalLane="E1_2" arrivalPos="110.26" arrivalSpeed="14.77" duration="31.00" routeLength="210.29" waitingTime="3.00" waitingCount="1" stopTime="0.00" timeLoss="16.18" rerouteNo="0" devices="tripinfo_E2__1__background.7" vType="background" speedFactor="1.13" vaporized=""/>
    <tripinfo id="E2__1__background.4" depart="76.00" departLane="E2_2" departPos="4.60" departSpeed="0.00" departDelay="0.41" arrival="113.00" arrivalLane="E1_1" arrivalPos="110.26" arrivalSpeed="12.12" duration="37.00" routeLength="215.24" waitingTime="8.00" waitingCount="1" stopTime="0.00" timeLoss="18.72" rerouteNo="0" devices="tripinfo_E2__1__background.4" vType="background" speedFactor="0.93" vaporized=""/>
    <tripinfo id="-E1__1__ego.2" depart="74.00" departLane="-E1_1" departPos="4.60" departSpeed="0.00" departDelay="1.71" arrival="115.00" arrivalLane="-E2_1" arrivalPos="83.27" arrivalSpeed="13.41" duration="41.00" routeLength="197.80" waitingTime="19.00" waitingCount="1" stopTime="0.00" timeLoss="26.72" rerouteNo="0" devices="tripinfo_-E1__1__ego.2" vType="ego" speedFactor="1.04" vaporized=""/>
    <tripinfo id="E2__1__background.6" depart="78.00" departLane="E2_1" departPos="4.60" departSpeed="0.00" departDelay="1.27" arrival="115.00" arrivalLane="E1_1" arrivalPos="110.26" arrivalSpeed="12.41" duration="37.00" routeLength="215.24" waitingTime="7.00" waitingCount="1" stopTime="0.00" timeLoss="18.39" rerouteNo="0" devices="tripinfo_E2__1__background.6" vType="background" speedFactor="0.90" vaporized=""/>
    <tripinfo id="-E1__1__background.1" depart="75.00" departLane="-E1_3" departPos="4.60" departSpeed="0.00" departDelay="0.99" arrival="118.00" arrivalLane="-E2_1" arrivalPos="83.27" arrivalSpeed="12.40" duration="43.00" routeLength="197.80" waitingTime="18.00" waitingCount="1" stopTime="0.00" timeLoss="27.28" rerouteNo="0" devices="tripinfo_-E1__1__background.1" vType="background" speedFactor="0.97" vaporized=""/>
    <tripinfo id="-E1__1__background.3" depart="88.00" departLane="-E1_2" departPos="4.60" departSpeed="0.00" departDelay="0.65" arrival="119.00" arrivalLane="-E0_2" arrivalPos="112.16" arrivalSpeed="14.65" duration="31.00" routeLength="241.66" waitingTime="3.00" waitingCount="1" stopTime="0.00" timeLoss="13.80" rerouteNo="0" devices="tripinfo_-E1__1__background.3" vType="background" speedFactor="1.07" vaporized=""/>
    <tripinfo id="-E1__1__background.2" depart="84.00" departLane="-E1_2" departPos="4.60" departSpeed="0.00" departDelay="0.84" arrival="121.00" arrivalLane="-E0_1" arrivalPos="112.16" arrivalSpeed="10.91" duration="37.00" routeLength="241.66" waitingTime="7.00" waitingCount="1" stopTime="0.00" timeLoss="15.99" rerouteNo="0" devices="tripinfo_-E1__1__background.2" vType="background" speedFactor="0.86" vaporized=""/>
    <tripinfo id="E0__1__ego.2" depart="91.00" departLane="E0_1" departPos="4.60" departSpeed="0.00" departDelay="0.11" arrival="125.00" arrivalLane="-E2_2" arrivalPos="83.27" arrivalSpeed="14.48" duration="34.00" routeLength="215.15" waitingTime="9.00" waitingCount="1" stopTime="0.00" timeLoss="19.49" rerouteNo="0" devices="tripinfo_E0__1__ego.2" vType="ego" speedFactor="1.11" vaporized=""/>
    <tripinfo id="E0__1__ego.0" depart="87.00" departLane="E0_2" departPos="4.60" departSpeed="0.00" departDelay="0.77" arrival="127.00" arrivalLane="E1_2" arrivalPos="110.26" arrivalSpeed="13.42" duration="40.00" routeLength="241.93" waitingTime="13.00" waitingCount="1" stopTime="0.00" timeLoss="22.44" rerouteNo="0" devices="tripinfo_E0__1__ego.0" vType="ego" speedFactor="1.02" vaporized=""/>
    <tripinfo id="E0__1__ego.1" depart="88.00" departLane="E0_3" departPos="4.60" departSpeed="0.00" departDelay="1.60" arrival="129.00" arrivalLane="E1_2" arrivalPos="110.26" arrivalSpeed="14.34" duration="41.00" routeLength="241.93" waitingTime="11.00" waitingCount="1" stopTime="0.00" timeLoss="24.56" rerouteNo="0" devices="tripinfo_E0__1__ego.1" vType="ego" speedFactor="1.12" vaporized=""/>