<?xml version="1.0" encoding="UTF-8"?>

<!-- generated on 2023-12-01 21:43:40 by Eclipse SUMO GUI Version 1.18.0
<configuration xmlns:xsi="http://www.w3.org/2001/XMLSchema-instance" xsi:noNamespaceSchemaLocation="http://sumo.dlr.de/xsd/sumoConfiguration.xsd">

    <input>
        <net-file value="/home/wmn/TrafficAlpha/TSC-LLM/ConventionalMethods/../TSCScenario/3way/env/3way.net.xml"/>
        <route-files value="/home/wmn/TrafficAlpha/TSC-LLM/ConventionalMethods/../TSCScenario/3way/env/../routes/vehicle.rou.xml"/>
        <additional-files value="/home/wmn/TrafficAlpha/TSC-LLM/ConventionalMethods/../TSCScenario/3way/env/../add/tls.add.xml,/home/wmn/TrafficAlpha/TSC-LLM/ConventionalMethods/../TSCScenario/3way/env/ ../add/e2.add.xml"/>
    </input>

    <output>
        <tripinfo-output value="/home/wmn/TrafficAlpha/TSC-LLM/ConventionalMethods/./3way_FT.tripinfo.xml"/>
    </output>

    <processing>
        <time-to-teleport value="-1"/>
        <waiting-time-memory value="10000"/>
        <max-depart-delay value="100000"/>
    </processing>

    <report>
        <no-warnings value="true"/>
        <no-step-log value="true"/>
    </report>

    <traci_server>
        <remote-port value="40297"/>
    </traci_server>

    <random_number>
        <random value="true"/>
    </random_number>

    <gui_only>
        <quit-on-end value="true"/>
        <start value="true"/>
    </gui_only>

</configuration>
-->

<tripinfos xmlns:xsi="http://www.w3.org/2001/XMLSchema-instance" xsi:noNamespaceSchemaLocation="http://sumo.dlr.de/xsd/tripinfo_file.xsd">
    <tripinfo id="-E1__0__ego.0" depart="1.00" departLane="-E1_3" departPos="4.60" departSpeed="0.00" departDelay="0.16" arrival="22.00" arrivalLane="-E0_2" arrivalPos="112.16" arrivalSpeed="14.82" duration="21.00" routeLength="241.66" waitingTime="0.00" waitingCount="0" stopTime="0.00" timeLoss="4.90" rerouteNo="0" devices="tripinfo_-E1__0__ego.0" vType="ego" speedFactor="1.14" vaporized=""/>
    <tripinfo id="-E1__0__background.0" depart="5.00" departLane="-E1_2" departPos="4.60" departSpeed="0.00" departDelay="0.84" arrival="27.00" arrivalLane="-E0_1" arrivalPos="112.16" arrivalSpeed="13.69" duration="22.00" routeLength="241.66" waitingTime="0.00" waitingCount="0" stopTime="0.00" timeLoss="4.44" rerouteNo="0" devices="tripinfo_-E1__0__background.0" vType="background" speedFactor="1.01" vaporized=""/>
    <tripinfo id="-E1__0__background.1" depart="7.00" departLane="-E1_1" departPos="4.60" departSpeed="0.00" departDelay="1.01" arrival="30.00" arrivalLane="-E0_1" arrivalPos="112.16" arrivalSpeed="13.05" duration="23.00" routeLength="241.66" waitingTime="0.00" waitingCount="0" stopTime="0.00" timeLoss="4.36" rerouteNo="0" devices="tripinfo_-E1__0__background.1" vType="background" speedFactor="0.98" vaporized=""/>
    <tripinfo id="-E1__0__background.2" depart="8.00" departLane="-E1_2" departPos="4.60" departSpeed="0.00" departDelay="0.05" arrival="30.00" arrivalLane="-E0_2" arrivalPos="112.16" arrivalSpeed="13.27" duration="22.00" routeLength="241.66" waitingTime="0.00" waitingCount="0" stopTime="0.00" timeLoss="3.95" rerouteNo="0" devices="tripinfo_-E1__0__background.2" vType="background" speedFactor="1.00" vaporized=""/>
    <tripinfo id="-E1__0__ego.1" depart="16.00" departLane="-E1_1" departPos="4.60" departSpeed="0.00" departDelay="0.32" arrival="36.00" arrivalLane="-E0_1" arrivalPos="112.16" arrivalSpeed="14.67" duration="20.00" routeLength="241.66" waitingTime="0.00" waitingCount="0" stopTime="0.00" timeLoss="3.60" rerouteNo="0" devices="tripinfo_-E1__0__ego.1" vType="ego" speedFactor="1.06" vaporized=""/>
    <tripinfo id="-E1__0__ego.2" depart="18.00" departLane="-E1_1" departPos="4.60" departSpeed="0.00" departDelay="1.25" arrival="39.00" arrivalLane="-E0_1" arrivalPos="112.16" arrivalSpeed="13.80" duration="21.00" routeLength="241.66" waitingTime="0.00" waitingCount="0" stopTime="0.00" timeLoss="3.84" rerouteNo="0" devices="tripinfo_-E1__0__ego.2" vType="ego" speedFactor="1.04" vaporized=""/>
    <tripinfo id="E0__0__background.0" depart="4.00" departLane="E0_2" departPos="4.60" departSpeed="0.00" departDelay="0.42" arrival="46.00" arrivalLane="E1_1" arrivalPos="110.26" arrivalSpeed="13.35" duration="42.00" routeLength="241.93" waitingTime="14.00" waitingCount="1" stopTime="0.00" timeLoss="24.72" rerouteNo="0" devices="tripinfo_E0__0__background.0" vType="background" speedFactor="1.05" vaporized=""/>
    <tripinfo id="E0__0__background.1" depart="7.00" departLane="E0_2" departPos="4.60" departSpeed="0.00" departDelay="0.46" arrival="46.00" arrivalLane="E1_2" arrivalPos="110.26" arrivalSpeed="13.72" duration="39.00" routeLength="241.93" waitingTime="10.00" waitingCount="2" stopTime="0.00" timeLoss="22.12" rerouteNo="0" devices="tripinfo_E0__0__background.1" vType="background" speedFactor="1.22" vaporized=""/>
    <tripinfo id="E0__0__background.2" depart="7.00" departLane="E0_1" departPos="4.60" departSpeed="0.00" departDelay="0.20" arrival="46.00" arrivalLane="-E2_2" arrivalPos="83.27" arrivalSpeed="13.01" duration="39.00" routeLength="215.15" waitingTime="11.00" waitingCount="1" stopTime="0.00" timeLoss="21.14" rerouteNo="0" devices="tripinfo_E0__0__background.2" vType="background" speedFactor="0.95" vaporized=""/>
    <tripinfo id="E0__0__background.4" depart="12.00" departLane="E0_3" departPos="4.60" departSpeed="0.00" departDelay="0.97" arrival="48.00" arrivalLane="E1_2" arrivalPos="110.26" arrivalSpeed="13.53" duration="36.00" routeLength="241.93" waitingTime="7.00" waitingCount="1" stopTime="0.00" timeLoss="18.11" rerouteNo="0" devices="tripinfo_E0__0__background.4" vType="background" speedFactor="1.02" vaporized=""/>
    <tripinfo id="E0__0__background.3" depart="11.00" departLane="E0_1" departPos="4.60" departSpeed="0.00" departDelay="0.12" arrival="49.00" arrivalLane="E1_1" arrivalPos="110.26" arrivalSpeed="10.98" duration="38.00" routeLength="241.93" waitingTime="7.00" waitingCount="1" stopTime="0.00" timeLoss="16.59" rerouteNo="0" devices="tripinfo_E0__0__background.3" vType="background" speedFactor="0.82" vaporized=""/>
    <tripinfo id="E0__0__ego.0" depart="16.00" departLane="E0_2" departPos="4.60" departSpeed="0.00" departDelay="0.07" arrival="49.00" arrivalLane="E1_2" arrivalPos="110.26" arrivalSpeed="15.80" duration="33.00" routeLength="241.93" waitingTime="5.00" waitingCount="1" stopTime="0.00" timeLoss="17.82" rerouteNo="0" devices="tripinfo_E0__0__ego.0" vType="ego" speedFactor="1.17" vaporized=""/>
    <tripinfo id="E0__0__background.9" depart="30.00" departLane="E0_3" departPos="4.60" departSpeed="0.00" departDelay="1.21" arrival="50.00" arrivalLane="-E2_2" arrivalPos="83.27" arrivalSpeed="14.98" duration="20.00" routeLength="215.15" waitingTime="0.00" waitingCount="0" stopTime="0.00" timeLoss="4.85" rerouteNo="0" devices="tripinfo_E0__0__background.9" vType="background" speedFactor="1.12" vaporized=""/>
    <tripinfo id="E0__0__background.5" depart="13.00" departLane="E0_2" departPos="4.60" departSpeed="0.00" departDelay="0.68" arrival="51.00" arrivalLane="E1_1" arrivalPos="110.26" arrivalSpeed="13.27" duration="38.00" routeLength="241.93" waitingTime="6.00" waitingCount="1" stopTime="0.00" timeLoss="20.63" rerouteNo="0" devices="tripinfo_E0__0__background.5" vType="background" speedFactor="1.04" vaporized=""/>
    <tripinfo id="E0__0__background.6" depart="18.00" departLane="E0_2" departPos="4.60" departSpeed="0.00" departDelay="0.63" arrival="52.00" arrivalLane="E1_2" arrivalPos="110.26" arrivalSpeed="12.26" duration="34.00" routeLength="241.93" waitingTime="5.00" waitingCount="2" stopTime="0.00" timeLoss="14.84" rerouteNo="0" devices="tripinfo_E0__0__background.6" vType="background" speedFactor="0.95" vaporized=""/>
    <tripinfo id="E0__0__background.7" depart="26.00" departLane="E0_1" departPos="4.60" departSpeed="0.00" departDelay="0.10" arrival="53.00" arrivalLane="E1_1" arrivalPos="110.26" arrivalSpeed="13.14" duration="27.00" routeLength="241.93" waitingTime="0.00" waitingCount="0" stopTime="0.00" timeLoss="8.94" rerouteNo="0" devices="tripinfo_E0__0__background.7" vType="background" speedFactor="1.01" vaporized=""/>
    <tripinfo id="E0__0__background.8" depart="27.00" departLane="E0_2" departPos="4.60" departSpeed="0.00" departDelay="0.30" arrival="53.00" arrivalLane="E1_2" arrivalPos="110.26" arrivalSpeed="13.12" duration="26.00" routeLength="241.93" waitingTime="0.00" waitingCount="0" stopTime="0.00" timeLoss="8.29" rerouteNo="0" devices="tripinfo_E0__0__background.8" vType="background" speedFactor="0.98" vaporized=""/>
    <tripinfo id="E0__0__ego.1" depart="37.00" departLane="E0_3" departPos="4.60" departSpeed="0.00" departDelay="0.21" arrival="60.00" arrivalLane="E1_2" arrivalPos="110.26" arrivalSpeed="12.66" duration="23.00" routeLength="241.93" waitingTime="0.00" waitingCount="0" stopTime="0.00" timeLoss="4.13" rerouteNo="0" devices="tripinfo_E0__0__ego.1" vType="ego" speedFactor="0.94" vaporized=""/>
    <tripinfo id="E0__0__rescue.0" depart="40.00" departLane="E0_2" departPos="5.10" departSpeed="0.00" departDelay="0.85" arrival="60.00" arrivalLane="-E2_2" arrivalPos="83.27" arrivalSpeed="19.83" duration="20.00" routeLength="214.65" waitingTime="0.00" waitingCount="0" stopTime="0.00" timeLoss="9.72" rerouteNo="0" devices="tripinfo_E0__0__rescue.0" vType="rescue" speedFactor="1.63" vaporized=""/>
    <tripinfo id="E0__0__ego.2" depart="41.00" departLane="E0_1" departPos="4.60" departSpeed="0.00" departDelay="0.46" arrival="64.00" arrivalLane="E1_1" arrivalPos="110.26" arrivalSpeed="11.69" duration="23.00" routeLength="241.93" waitingTime="0.00" waitingCount="0" stopTime="0.00" timeLoss="3.83" rerouteNo="0" devices="tripinfo_E0__0__ego.2" vType="ego" speedFactor="0.91" vaporized=""/>
    <tripinfo id="E0__0__background.10" depart="42.00" departLane="E0_3" departPos="4.60" departSpeed="0.00" departDelay="1.15" arrival="66.00" arrivalLane="E1_2" arrivalPos="110.26" arrivalSpeed="11.24" duration="24.00" routeLength="241.93" waitingTime="0.00" waitingCount="0" stopTime="0.00" timeLoss="3.77" rerouteNo="0" devices="tripinfo_E0__0__background.10" vType="background" speedFactor="0.88" vaporized=""/>
    <tripinfo id="E0__0__background.11" depart="45.00" departLane="E0_2" departPos="4.60" departSpeed="0.00" departDelay="0.54" arrival="68.00" arrivalLane="E1_2" arrivalPos="110.26" arrivalSpeed="11.74" duration="23.00" routeLength="241.93" waitingTime="0.00" waitingCount="0" stopTime="0.00" timeLoss="3.51" rerouteNo="0" devices="tripinfo_E0__0__background.11" vType="background" speedFactor="0.93" vaporized=""/>
    <tripinfo id="E0__0__ego.3" depart="48.00" departLane="E0_1" departPos="4.60" departSpeed="0.00" departDelay="0.08" arrival="69.00" arrivalLane="E1_1" arrivalPos="110.26" arrivalSpeed="13.36" duration="21.00" routeLength="241.93" waitingTime="0.00" waitingCount="0" stopTime="0.00" timeLoss="3.38" rerouteNo="0" devices="tripinfo_E0__0__ego.3" vType="ego" speedFactor="0.99" vaporized=""/>
    <tripinfo id="E2__0__background.0" depart="6.00" departLane="E2_1" departPos="4.60" departSpeed="0.00" departDelay="0.32" arrival="79.00" arrivalLane="-E0_1" arrivalPos="112.16" arrivalSpeed="11.79" duration="73.00" routeLength="201.84" waitingTime="46.00" waitingCount="1" stopTime="0.00" timeLoss="56.35" rerouteNo="0" devices="tripinfo_E2__0__background.0" vType="background" speedFactor="0.92" vaporized=""/>
    <tripinfo id="E2__0__background.1" depart="8.00" departLane="E2_2" departPos="4.60" departSpeed="0.00" departDelay="0.29" arrival="81.00" arrivalLane="E1_1" arrivalPos="110.26" arrivalSpeed="11.66" duration="73.00" routeLength="215.24" waitingTime="46.00" waitingCount="1" stopTime="0.00" timeLoss="53.96" rerouteNo="0" devices="tripinfo_E2__0__background.1" vType="background" speedFactor="0.86" vaporized=""/>
    <tripinfo id="E2__0__background.3" depart="36.00" departLane="E2_3" departPos="4.60" departSpeed="0.00" departDelay="0.09" arrival="82.00" arrivalLane="-E0_1" arrivalPos="112.16" arrivalSpeed="12.29" duration="46.00" routeLength="201.84" waitingTime="18.00" waitingCount="1" stopTime="0.00" timeLoss="29.02" rerouteNo="0" devices="tripinfo_E2__0__background.3" vType="background" speedFactor="0.92" vaporized=""/>
    <tripinfo id="E2__0__background.2" depart="11.00" departLane="E2_2" departPos="4.60" departSpeed="0.00" departDelay="0.18" arrival="83.00" arrivalLane="E1_2" arrivalPos="110.26" arrivalSpeed="9.57" duration="72.00" routeLength="210.29" waitingTime="40.00" waitingCount="1" stopTime="0.00" timeLoss="49.76" rerouteNo="0" devices="tripinfo_E2__0__background.2" vType="background" speedFactor="0.73" vaporized=""/>
    <tripinfo id="E2__0__ego.1" depart="21.00" departLane="E2_2" departPos="4.60" departSpeed="0.00" departDelay="0.68" arrival="83.00" arrivalLane="E1_1" arrivalPos="110.26" arrivalSpeed="14.44" duration="62.00" routeLength="215.24" waitingTime="33.00" waitingCount="1" stopTime="0.00" timeLoss="45.79" rerouteNo="0" devices="tripinfo_E2__0__ego.1" vType="ego" speedFactor="1.04" vaporized=""/>
    <tripinfo id="E2__0__ego.0" depart="20.00" departLane="E2_3" departPos="4.60" departSpeed="0.00" departDelay="0.72" arrival="84.00" arrivalLane="E1_2" arrivalPos="110.26" arrivalSpeed="11.57" duration="64.00" routeLength="210.29" waitingTime="35.00" waitingCount="1" stopTime="0.00" timeLoss="49.40" rerouteNo="0" devices="tripinfo_E2__0__ego.0" vType="ego" speedFactor="1.09" vaporized=""/>
    <tripinfo id="E2__0__background.5" depart="49.00" departLane="E2_1" departPos="4.60" departSpeed="0.00" departDelay="0.77" arrival="84.00" arrivalLane="E1_1" arrivalPos="110.26" arrivalSpeed="14.27" duration="35.00" routeLength="215.24" waitingTime="9.00" waitingCount="1" stopTime="0.00" timeLoss="19.58" rerouteNo="0" devices="tripinfo_E2__0__background.5" vType="background" speedFactor="1.05" vaporized=""/>
    <tripinfo id="E2__0__ego.2" depart="27.00" departLane="E2_3" departPos="4.60" departSpeed="0.00" departDelay="0.05" arrival="86.00" arrivalLane="E1_2" arrivalPos="110.26" arrivalSpeed="11.75" duration="59.00" routeLength="210.29" waitingTime="29.00" waitingCount="1" stopTime="0.00" timeLoss="40.37" rerouteNo="0" devices="tripinfo_E2__0__ego.2" vType="ego" speedFactor="0.86" vaporized=""/>
    <tripinfo id="E2__0__background.4" depart="42.00" departLane="E2_3" departPos="4.60" departSpeed="0.00" departDelay="0.70" arrival="87.00" arrivalLane="-E0_1" arrivalPos="112.16" arrivalSpeed="9.44" duration="45.00" routeLength="201.84" waitingTime="14.00" waitingCount="1" stopTime="0.00" timeLoss="24.35" rerouteNo="0" devices="tripinfo_E2__0__background.4" vType="background" speedFactor="0.76" vaporized=""/>
    <tripinfo id="E2__1__background.1" depart="64.00" departLane="E2_2" departPos="4.60" departSpeed="0.00" departDelay="0.57" arrival="87.00" arrivalLane="E1_1" arrivalPos="110.26" arrivalSpeed="14.30" duration="23.00" routeLength="215.24" waitingTime="0.00" waitingCount="0" stopTime="0.00" timeLoss="7.60" rerouteNo="0" devices="tripinfo_E2__1__background.1" vType="background" speedFactor="1.28" vaporized=""/>
    <tripinfo id="E2__0__background.6" depart="57.00" departLane="E2_1" departPos="4.60" departSpeed="0.00" departDelay="0.85" arrival="88.00" arrivalLane="E1_2" arrivalPos="110.26" arrivalSpeed="14.07" duration="31.00" routeLength="210.29" waitingTime="1.00" waitingCount="1" stopTime="0.00" timeLoss="14.97" rerouteNo="0" devices="tripinfo_E2__0__background.6" vType="background" speedFactor="1.03" vaporized=""/>
    <tripinfo id="E2__1__background.0" depart="62.00" departLane="E2_2" departPos="4.60" departSpeed="0.00" departDelay="0.46" arrival="89.00" arrivalLane="-E0_1" arrivalPos="112.16" arrivalSpeed="14.18" duration="27.00" routeLength="201.84" waitingTime="0.00" waitingCount="0" stopTime="0.00" timeLoss="11.38" rerouteNo="0" devices="tripinfo_E2__1__background.0" vType="background" speedFactor="1.04" vaporized=""/>
    <tripinfo id="E2__1__ego.0" depart="72.00" departLane="E2_3" departPos="4.60" departSpeed="0.00" departDelay="0.74" arrival="93.00" arrivalLane="E1_2" arrivalPos="110.26" arrivalSpeed="13.32" duration="21.00" routeLength="210.29" waitingTime="0.00" waitingCount="0" stopTime="0.00" timeLoss="4.74" rerouteNo="0" devices="tripinfo_E2__1__ego.0" vType="ego" speedFactor="1.02" vaporized=""/>
    <tripinfo id="E2__1__background.2" depart="73.00" departLane="E2_1" departPos="4.60" departSpeed="0.00" departDelay="0.59" arrival="95.00" arrivalLane="E1_1" arrivalPos="110.26" arrivalSpeed="14.01" duration="22.00" routeLength="215.24" waitingTime="0.00" waitingCount="0" stopTime="0.00" timeLoss="6.34" rerouteNo="0" devices="tripinfo_E2__1__background.2" vType="background" speedFactor="1.06" vaporized=""/>
    <tripinfo id="E2__1__background.3" depart="74.00" departLane="E2_2" departPos="4.60" departSpeed="0.00" departDelay="0.33" arrival="98.00" arrivalLane="-E0_1" arrivalPos="112.16" arrivalSpeed="11.55" duration="24.00" routeLength="201.84" waitingTime="1.00" waitingCount="1" stopTime="0.00" timeLoss="6.85" rerouteNo="0" devices="tripinfo_E2__1__background.3" vType="background" speedFactor="0.91" vaporized=""/>
    <tripinfo id="E2__1__ego.1" depart="76.00" departLane="E2_3" departPos="4.60" departSpeed="0.00" departDelay="0.92" arrival="98.00" arrivalLane="E1_2" arrivalPos="110.26" arrivalSpeed="13.17" duration="22.00" routeLength="210.29" waitingTime="0.00" waitingCount="0" stopTime="0.00" timeLoss="4.88" rerouteNo="0" devices="tripinfo_E2__1__ego.1" vType="ego" speedFactor="0.96" vaporized=""/>
    <tripinfo id="E2__1__background.4" depart="77.00" departLane="E2_1" departPos="4.60" departSpeed="0.00" departDelay="1.41" arrival="98.00" arrivalLane="E1_1" arrivalPos="110.26" arrivalSpeed="14.19" duration="21.00" routeLength="215.24" waitingTime="0.00" waitingCount="0" stopTime="0.00" timeLoss="5.82" rerouteNo="0" devices="tripinfo_E2__1__background.4" vType="background" speedFactor="1.21" vaporized=""/>
    <tripinfo id="E2__1__background.6" depart="79.00" departLane="E2_3" departPos="4.60" departSpeed="0.00" departDelay="2.27" arrival="101.00" arrivalLane="E1_2" arrivalPos="110.26" arrivalSpeed="14.02" duration="22.00" routeLength="210.29" waitingTime="0.00" waitingCount="0" stopTime="0.00" timeLoss="6.14" rerouteNo="0" devices="tripinfo_E2__1__background.6" vType="background" speedFactor="1.05" vaporized=""/>
    <tripinfo id="E2__1__background.5" depart="79.00" departLane="E2_1" departPos="4.60" departSpeed="0.00" departDelay="2.54" arrival="103.00" arrivalLane="E1_1" arrivalPos="110.26" arrivalSpeed="12.84" duration="24.00" routeLength="215.24" waitingTime="1.00" waitingCount="1" stopTime="0.00" timeLoss="7.03" rerouteNo="0" devices="tripinfo_E2__1__background.5" vType="background" speedFactor="0.95" vaporized=""/>
    <tripinfo id="E2__1__background.7" depart="83.00" departLane="E2_1" departPos="4.60" departSpeed="0.00" departDelay="4.16" arrival="105.00" arrivalLane="E1_1" arrivalPos="110.26" arrivalSpeed="13.26" duration="22.00" routeLength="215.24" waitingTime="0.00" waitingCount="0" stopTime="0.00" timeLoss="5.81" rerouteNo="0" devices="tripinfo_E2__1__background.7" vType="background" speedFactor="1.01" vaporized=""/>
    <tripinfo id="E2__1__background.8" depart="81.00" departLane="E2_3" departPos="4.60" departSpeed="0.00" departDelay="0.50" arrival="105.00" arrivalLane="E1_2" arrivalPos="110.26" arrivalSpeed="12.41" duration="24.00" routeLength="210.29" waitingTime="0.00" waitingCount="0" stopTime="0.00" timeLoss="5.70" rerouteNo="0" devices="tripinfo_E2__1__background.8" vType="background" speedFactor="0.91" vaporized=""/>
    <tripinfo id="-E1__0__ego.3" depart="24.00" departLane="-E1_3" departPos="4.60" departSpeed="0.00" departDelay="0.65" arrival="110.00" arrivalLane="-E2_1" arrivalPos="83.27" arrivalSpeed="11.48" duration="86.00" routeLength="197.80" waitingTime="60.00" waitingCount="1" stopTime="0.00" timeLoss="68.55" rerouteNo="0" devices="tripinfo_-E1__0__ego.3" vType="ego" speedFactor="0.88" vaporized=""/>
    <tripinfo id="-E1__0__background.5" depart="32.00" departLane="-E1_1" departPos="4.60" departSpeed="0.00" departDelay="0.92" arrival="111.00" arrivalLane="-E0_1" arrivalPos="112.16" arrivalSpeed="13.58" duration="79.00" routeLength="241.66" waitingTime="52.00" waitingCount="1" stopTime="0.00" timeLoss="61.80" rerouteNo="0" devices="tripinfo_-E1__0__background.5" vType="background" speedFactor="1.02" vaporized=""/>
    <tripinfo id="-E1__0__background.4" depart="29.00" departLane="-E1_1" departPos="4.60" departSpeed="0.00" departDelay="0.71" arrival="112.00" arrivalLane="-E2_1" arrivalPos="83.27" arrivalSpeed="12.44" duration="83.00" routeLength="197.80" waitingTime="58.00" waitingCount="1" stopTime="0.00" timeLoss="66.17" rerouteNo="0" devices="tripinfo_-E1__0__background.4" vType="background" speedFactor="0.91" vaporized=""/>
    <tripinfo id="-E1__0__background.3" depart="26.00" departLane="-E1_1" departPos="4.60" departSpeed="0.00" departDelay="0.78" arrival="113.00" arrivalLane="-E0_1" arrivalPos="112.16" arrivalSpeed="12.08" duration="87.00" routeLength="241.66" waitingTime="58.00" waitingCount="1" stopTime="0.00" timeLoss="66.63" rerouteNo="0" devices="tripinfo_-E1__0__background.3" vType="background" speedFactor="0.89" vaporized=""/>
    <tripinfo id="-E1__0__background.8" depart="44.00" departLane="-E1_3" departPos="4.60" departSpeed="0.00" departDelay="0.81" arrival="113.00" arrivalLane="-E0_2" arrivalPos="112.16" arrivalSpeed="13.96" duration="69.00" routeLength="241.66" waitingTime="42.00" waitingCount="1" stopTime="0.00" timeLoss="52.20" rerouteNo="0" devices="tripinfo_-E1__0__background.8" vType="background" speedFactor="1.14" vaporized=""/>
    <tripinfo id="-E1__0__background.9" depart="47.00" departLane="-E1_2" departPos="4.60" departSpeed="0.00" departDelay="0.98" arrival="114.00" arrivalLane="-E0_1" arrivalPos="112.16" arrivalSpeed="13.43" duration="67.00" routeLength="241.66" waitingTime="40.00" waitingCount="1" stopTime="0.00" timeLoss="49.21" rerouteNo="0" devices="tripinfo_-E1__0__background.9" vType="background" speedFactor="0.98" vaporized=""/>
    <tripinfo id="-E1__0__background.6" depart="35.00" departLane="-E1_2" departPos="4.60" departSpeed="0.00" departDelay="1.34" arrival="115.00" arrivalLane="-E2_1" arrivalPos="83.27" arrivalSpeed="12.24" duration="80.00" routeLength="197.80" waitingTime="52.00" waitingCount="1" stopTime="0.00" timeLoss="63.38" rerouteNo="0" devices="tripinfo_-E1__0__background.6" vType="background" speedFactor="0.93" vaporized=""/>
    <tripinfo id="-E1__0__background.10" depart="49.00" departLane="-E1_3" departPos="4.60" departSpeed="0.00" departDelay="0.86" arrival="116.00" arrivalLane="-E0_2" arrivalPos="112.16" arrivalSpeed="12.13" duration="67.00" routeLength="241.66" waitingTime="37.00" waitingCount="1" stopTime="0.00" timeLoss="47.41" rerouteNo="0" devices="tripinfo_-E1__0__background.10" vType="background" speedFactor="0.90" vaporized=""/>
    <tripinfo id="-E1__0__background.11" depart="52.00" departLane="-E1_1" departPos="4.60" departSpeed="0.00" departDelay="0.48" arrival="116.00" arrivalLane="-E0_1" arrivalPos="112.16" arrivalSpeed="14.12" duration="64.00" routeLength="241.66" waitingTime="36.00" waitingCount="1" stopTime="0.00" timeLoss="47.42" rerouteNo="0" devices="tripinfo_-E1__0__background.11" vType="background" speedFactor="1.10" vaporized=""/>
    <tripinfo id="-E1__0__ego.4" depart="47.00" departLane="-E1_1" departPos="4.60" departSpeed="0.00" departDelay="0.98" arrival="118.00" arrivalLane="-E2_1" arrivalPos="83.27" arrivalSpeed="12.29" duration="71.00" routeLength="197.80" waitingTime="43.00" waitingCount="1" stopTime="0.00" timeLoss="54.79" rerouteNo="0" devices="tripinfo_-E1__0__ego.4" vType="ego" speedFactor="0.97" vaporized=""/>
    <tripinfo id="-E1__0__background.12" depart="55.00" departLane="-E1_1" departPos="4.60" departSpeed="0.00" departDelay="1.55" arrival="118.00" arrivalLane="-E0_1" arrivalPos="112.16" arrivalSpeed="14.26" duration="63.00" routeLength="241.66" waitingTime="34.00" waitingCount="1" stopTime="0.00" timeLoss="45.30" rerouteNo="0" devices="tripinfo_-E1__0__background.12" vType="background" speedFactor="1.03" vaporized=""/>
    <tripinfo id="-E1__1__background.0" depart="62.00" departLane="-E1_3" departPos="4.60" departSpeed="0.00" departDelay="0.28" arrival="118.00" arrivalLane="-E0_2" arrivalPos="112.16" arrivalSpeed="14.41" duration="56.00" routeLength="241.66" waitingTime="27.00" waitingCount="1" stopTime="0.00" timeLoss="38.61" rerouteNo="0" devices="tripinfo_-E1__1__background.0" vType="background" speedFactor="1.05" vaporized=""/>
    <tripinfo id="-E1__1__ego.1" depart="71.00" departLane="-E1_3" departPos="4.60" departSpeed="0.00" departDelay="0.83" arrival="119.00" arrivalLane="-E0_2" arrivalPos="112.16" arrivalSpeed="15.95" duration="48.00" routeLength="241.66" waitingTime="21.00" waitingCount="1" stopTime="0.00" timeLoss="33.16" rerouteNo="0" devices="tripinfo_-E1__1__ego.1" vType="ego" speedFactor="1.19" vaporized=""/>
    <tripinfo id="-E1__1__ego.0" depart="64.00" departLane="-E1_1" departPos="4.60" departSpeed="0.00" departDelay="0.53" arrival="120.00" arrivalLane="-E0_1" arrivalPos="112.16" arrivalSpeed="13.58" duration="56.00" routeLength="241.66" waitingTime="27.00" waitingCount="1" stopTime="0.00" timeLoss="37.52" rerouteNo="0" devices="tripinfo_-E1__1__ego.0" vType="ego" speedFactor="0.99" vaporized=""/>
    <tripinfo id="-E1__1__ego.2" depart="74.00" departLane="-E1_1" departPos="4.60" departSpeed="0.00" departDelay="1.71" arrival="120.00" arrivalLane="-E2_1" arrivalPos="83.27" arrivalSpeed="12.78" duration="46.00" routeLength="197.80" waitingTime="17.00" waitingCount="1" stopTime="0.00" timeLoss="30.84" rerouteNo="0" devices="tripinfo_-E1__1__ego.2" vType="ego" speedFactor="0.99" vaporized=""/>
    <tripinfo id="-E1__1__background.2" depart="84.00" departLane="-E1_2" departPos="4.60" departSpeed="0.00" departDelay="0.84" arrival="121.00" arrivalLane="-E0_1" arrivalPos="112.16" arrivalSpeed="13.26" duration="37.00" routeLength="241.66" waitingTime="8.00" waitingCount="1" stopTime="0.00" timeLoss="19.74" rerouteNo="0" devices="tripinfo_-E1__1__background.2" vType="background" speedFactor="1.01" vaporized=""/>
    <tripinfo id="-E1__1__background.3" depart="88.00" departLane="-E1_2" departPos="4.60" departSpeed="0.00" departDelay="0.65" arrival="121.00" arrivalLane="-E0_2" arrivalPos="112.16" arrivalSpeed="12.10" duration="33.00" routeLength="241.66" waitingTime="3.00" waitingCount="1" stopTime="0.00" timeLoss="14.77" rerouteNo="0" devices="tripinfo_-E1__1__background.3" vType="background" speedFactor="0.96" vaporized=""/>
    <tripinfo id="-E1__1__background.1" depart="76.00" departLane="-E1_3" departPos="4.60" departSpeed="0.00" departDelay="1.99" arrival="124.00" arrivalLane="-E2_1" arrivalPos="83.27" arrivalSpeed="12.71" duration="48.00" routeLength="197.80" waitingTime="16.00" waitingCount="1" stopTime="0.00" timeLoss="31.06" rerouteNo="0" devices="tripinfo_-E1__1__background.1" vType="background" speedFactor="0.93" vaporized=""/>
    <tripinfo id="-E1__1__background.4" depart="105.00" departLane="-E1_2" departPos="4.60" departSpeed="0.00" departDelay="0.02" arrival="126.00" arrivalLane="-E0_1" arrivalPos="112.16" arrivalSpeed="13.78" duration="21.00" routeLength="241.66" waitingTime="0.00" waitingCount="0" stopTime="0.00" timeLoss="4.24" rerouteNo="0" devices="tripinfo_-E1__1__background.4" vType="background" speedFactor="1.14" vaporized=""/>
    <tripinfo id="-E1__1__background.5" depart="108.00" departLane="-E1_2" departPos="4.60" departSpeed="0.00" departDelay="0.08" arrival="129.00" arrivalLane="-E2_1" arrivalPos="83.27" arrivalSpeed="14.60" duration="21.00" routeLength="197.80" waitingTime="0.00" waitingCount="0" stopTime="0.00" timeLoss="6.85" rerouteNo="0" devices="tripinfo_-E1__1__background.5" vType="background" speedFactor="1.10" vaporized=""/>
    <tripinfo id="-E1__1__background.6" depart="111.00" departLane="-E1_3" departPos="4.60" departSpeed="0.00" departDelay="0.51" arrival="134.00" arrivalLane="-E0_2" arrivalPos="112.16" arrivalSpeed="12.43" duration="23.00" routeLength="241.66" waitingTime="0.00" waitingCount="0" stopTime="0.00" timeLoss="3.84" rerouteNo="0" devices="tripinfo_-E1__1__background.6" vType="background" speedFactor="0.93" vaporized=""/>
    <tripinfo id="E0__1__ego.2" depart="91.00" departLane="E0_2" departPos="4.60" departSpeed="0.00" departDelay="0.11" arrival="144.00" arrivalLane="-E2_2" arrivalPos="83.27" arrivalSpeed="13.74" duration="53.00" routeLength="215.15" waitingTime="26.00" waitingCount="1" stopTime="0.00" timeLoss="37.23" rerouteNo="0" devices="tripinfo_E0__1__ego.2" vType="ego" speedFactor="1.03" vaporized=""/>
    <tripinfo id="E0__0__ego.4" depart="53.00" departLane="E0_3" departPos="4.60" departSpeed="0.00" departDelay="0.87" arrival="145.00" arrivalLane="E1_2" arrivalPos="110.26" arrivalSpeed="12.59" duration="92.00" routeLength="241.93" waitingTime="65.00" waitingCount="1" stopTime="0.00" timeLoss="72.68" rerouteNo="0" devices="tripinfo_E0__0__ego.4" vType="ego" speedFactor="0.92" vaporized=""/>
    <tripinfo id="E0__0__background.12" depart="55.00" departLane="E0_2" departPos="4.60" departSpeed="0.00" departDelay="0.06" arrival="145.00" arrivalLane="E1_1" arrivalPos="110.26" arrivalSpeed="13.11" duration="90.00" routeLength="241.93" waitingTime="61.00" waitingCount="1" stopTime="0.00" timeLoss="71.23" rerouteNo="0" devices="tripinfo_E0__0__background.12" vType="background" speedFactor="0.95" vaporized=""/>