<?xml version="1.0" encoding="UTF-8"?>

<!-- generated on 2023-12-01 14:31:55 by Eclipse SUMO GUI Version 1.18.0
<configuration xmlns:xsi="http://www.w3.org/2001/XMLSchema-instance" xsi:noNamespaceSchemaLocation="http://sumo.dlr.de/xsd/sumoConfiguration.xsd">

    <input>
        <net-file value="/home/wmn/TrafficAlpha/TSC-LLM/TSCRL/../TSCScenario/3way/env/3way.net.xml"/>
        <route-files value="/home/wmn/TrafficAlpha/TSC-LLM/TSCRL/../TSCScenario/3way/env/../routes/vehicle.rou.xml"/>
        <additional-files value="/home/wmn/TrafficAlpha/TSC-LLM/TSCRL/../TSCScenario/3way/env/../add/tls.add.xml,/home/wmn/TrafficAlpha/TSC-LLM/TSCRL/../TSCScenario/3way/env/ ../add/e2.add.xml"/>
    </input>

    <output>
        <tripinfo-output value="/home/wmn/TrafficAlpha/TSC-LLM/TSCRL/./3way_next_or_not.tripinfo.xml"/>
    </output>

    <processing>
        <time-to-teleport value="-1"/>
        <waiting-time-memory value="10000"/>
        <max-depart-delay value="100000"/>
    </processing>

    <report>
        <no-warnings value="true"/>
        <no-step-log value="true"/>
    </report>

    <traci_server>
        <remote-port value="56043"/>
    </traci_server>

    <random_number>
        <random value="true"/>
    </random_number>

    <gui_only>
        <quit-on-end value="true"/>
        <start value="true"/>
    </gui_only>

</configuration>
-->

<tripinfos xmlns:xsi="http://www.w3.org/2001/XMLSchema-instance" xsi:noNamespaceSchemaLocation="http://sumo.dlr.de/xsd/tripinfo_file.xsd">
    <tripinfo id="E2__0__background.0" depart="6.00" departLane="E2_3" departPos="4.60" departSpeed="0.00" departDelay="0.32" arrival="28.00" arrivalLane="-E0_1" arrivalPos="112.16" arrivalSpeed="11.85" duration="22.00" routeLength="201.84" waitingTime="0.00" waitingCount="0" stopTime="0.00" timeLoss="4.45" rerouteNo="0" devices="tripinfo_E2__0__background.0" vType="background" speedFactor="0.90" vaporized=""/>
    <tripinfo id="-E1__0__background.0" depart="5.00" departLane="-E1_2" departPos="4.60" departSpeed="0.00" departDelay="0.84" arrival="31.00" arrivalLane="-E0_1" arrivalPos="112.16" arrivalSpeed="13.64" duration="26.00" routeLength="241.66" waitingTime="0.00" waitingCount="0" stopTime="0.00" timeLoss="8.62" rerouteNo="0" devices="tripinfo_-E1__0__background.0" vType="background" speedFactor="1.01" vaporized=""/>
    <tripinfo id="-E1__0__ego.0" depart="1.00" departLane="-E1_3" departPos="4.60" departSpeed="0.00" departDelay="0.16" arrival="33.00" arrivalLane="-E0_1" arrivalPos="112.16" arrivalSpeed="11.01" duration="32.00" routeLength="241.66" waitingTime="4.00" waitingCount="1" stopTime="0.00" timeLoss="11.10" rerouteNo="0" devices="tripinfo_-E1__0__ego.0" vType="ego" speedFactor="0.87" vaporized=""/>
    <tripinfo id="-E1__0__background.1" depart="6.00" departLane="-E1_3" departPos="4.60" departSpeed="0.00" departDelay="0.01" arrival="34.00" arrivalLane="-E0_2" arrivalPos="112.16" arrivalSpeed="13.88" duration="28.00" routeLength="241.66" waitingTime="0.00" waitingCount="0" stopTime="0.00" timeLoss="11.37" rerouteNo="0" devices="tripinfo_-E1__0__background.1" vType="background" speedFactor="1.21" vaporized=""/>
    <tripinfo id="E0__0__background.2" depart="8.00" departLane="E0_2" departPos="4.60" departSpeed="0.00" departDelay="1.20" arrival="37.00" arrivalLane="-E2_2" arrivalPos="83.27" arrivalSpeed="13.70" duration="29.00" routeLength="215.15" waitingTime="4.00" waitingCount="1" stopTime="0.00" timeLoss="13.64" rerouteNo="0" devices="tripinfo_E0__0__background.2" vType="background" speedFactor="1.09" vaporized=""/>
    <tripinfo id="E0__0__background.0" depart="4.00" departLane="E0_2" departPos="4.60" departSpeed="0.00" departDelay="0.42" arrival="39.00" arrivalLane="E1_2" arrivalPos="110.26" arrivalSpeed="13.89" duration="35.00" routeLength="241.93" waitingTime="9.00" waitingCount="1" stopTime="0.00" timeLoss="17.52" rerouteNo="0" devices="tripinfo_E0__0__background.0" vType="background" speedFactor="1.03" vaporized=""/>
    <tripinfo id="E0__0__background.1" depart="7.00" departLane="E0_1" departPos="4.60" departSpeed="0.00" departDelay="0.46" arrival="39.00" arrivalLane="E1_1" arrivalPos="110.26" arrivalSpeed="13.25" duration="32.00" routeLength="241.93" waitingTime="5.00" waitingCount="1" stopTime="0.00" timeLoss="14.72" rerouteNo="0" devices="tripinfo_E0__0__background.1" vType="background" speedFactor="1.03" vaporized=""/>
    <tripinfo id="E0__0__background.3" depart="11.00" departLane="E0_2" departPos="4.60" departSpeed="0.00" departDelay="0.12" arrival="41.00" arrivalLane="E1_2" arrivalPos="110.26" arrivalSpeed="14.25" duration="30.00" routeLength="241.93" waitingTime="2.00" waitingCount="1" stopTime="0.00" timeLoss="13.25" rerouteNo="0" devices="tripinfo_E0__0__background.3" vType="background" speedFactor="1.12" vaporized=""/>
    <tripinfo id="E0__0__background.4" depart="13.00" departLane="E0_1" departPos="4.60" departSpeed="0.00" departDelay="1.97" arrival="42.00" arrivalLane="E1_1" arrivalPos="110.26" arrivalSpeed="13.25" duration="29.00" routeLength="241.93" waitingTime="2.00" waitingCount="1" stopTime="0.00" timeLoss="10.96" rerouteNo="0" devices="tripinfo_E0__0__background.4" vType="background" speedFactor="1.01" vaporized=""/>
    <tripinfo id="E0__0__ego.0" depart="16.00" departLane="E0_3" departPos="4.60" departSpeed="0.00" departDelay="0.07" arrival="43.00" arrivalLane="E1_1" arrivalPos="110.26" arrivalSpeed="15.17" duration="27.00" routeLength="241.93" waitingTime="0.00" waitingCount="0" stopTime="0.00" timeLoss="11.47" rerouteNo="0" devices="tripinfo_E0__0__ego.0" vType="ego" speedFactor="1.15" vaporized=""/>
    <tripinfo id="E0__0__background.5" depart="13.00" departLane="E0_3" departPos="4.60" departSpeed="0.00" departDelay="0.68" arrival="44.00" arrivalLane="E1_2" arrivalPos="110.26" arrivalSpeed="12.44" duration="31.00" routeLength="241.93" waitingTime="2.00" waitingCount="1" stopTime="0.00" timeLoss="12.04" rerouteNo="0" devices="tripinfo_E0__0__background.5" vType="background" speedFactor="0.96" vaporized=""/>
    <tripinfo id="E0__0__background.6" depart="18.00" departLane="E0_2" departPos="4.60" departSpeed="0.00" departDelay="0.63" arrival="45.00" arrivalLane="E1_2" arrivalPos="110.26" arrivalSpeed="12.63" duration="27.00" routeLength="241.93" waitingTime="0.00" waitingCount="0" stopTime="0.00" timeLoss="8.46" rerouteNo="0" devices="tripinfo_E0__0__background.6" vType="background" speedFactor="0.95" vaporized=""/>
    <tripinfo id="E2__0__background.2" depart="11.00" departLane="E2_3" departPos="4.60" departSpeed="0.00" departDelay="0.18" arrival="52.00" arrivalLane="E1_2" arrivalPos="110.26" arrivalSpeed="13.06" duration="41.00" routeLength="210.29" waitingTime="17.00" waitingCount="1" stopTime="0.00" timeLoss="25.72" rerouteNo="0" devices="tripinfo_E2__0__background.2" vType="background" speedFactor="1.03" vaporized=""/>
    <tripinfo id="E2__0__background.1" depart="8.00" departLane="E2_1" departPos="4.60" departSpeed="0.00" departDelay="0.29" arrival="54.00" arrivalLane="E1_1" arrivalPos="110.26" arrivalSpeed="12.44" duration="46.00" routeLength="215.24" waitingTime="20.00" waitingCount="1" stopTime="0.00" timeLoss="28.84" rerouteNo="0" devices="tripinfo_E2__0__background.1" vType="background" speedFactor="0.94" vaporized=""/>
    <tripinfo id="E2__0__ego.0" depart="20.00" departLane="E2_2" departPos="4.60" departSpeed="0.00" departDelay="0.72" arrival="56.00" arrivalLane="E1_1" arrivalPos="110.26" arrivalSpeed="16.43" duration="36.00" routeLength="215.24" waitingTime="8.00" waitingCount="1" stopTime="0.00" timeLoss="22.25" rerouteNo="0" devices="tripinfo_E2__0__ego.0" vType="ego" speedFactor="1.22" vaporized=""/>
    <tripinfo id="E2__0__ego.1" depart="21.00" departLane="E2_3" departPos="4.60" departSpeed="0.00" departDelay="0.68" arrival="56.00" arrivalLane="E1_2" arrivalPos="110.26" arrivalSpeed="14.14" duration="35.00" routeLength="210.29" waitingTime="8.00" waitingCount="1" stopTime="0.00" timeLoss="19.39" rerouteNo="0" devices="tripinfo_E2__0__ego.1" vType="ego" speedFactor="1.03" vaporized=""/>
    <tripinfo id="-E1__0__ego.3" depart="24.00" departLane="-E1_1" departPos="4.60" departSpeed="0.00" departDelay="0.65" arrival="58.00" arrivalLane="-E2_1" arrivalPos="83.27" arrivalSpeed="12.94" duration="34.00" routeLength="197.80" waitingTime="9.00" waitingCount="1" stopTime="0.00" timeLoss="18.44" rerouteNo="0" devices="tripinfo_-E1__0__ego.3" vType="ego" speedFactor="0.99" vaporized=""/>
    <tripinfo id="-E1__0__background.4" depart="29.00" departLane="-E1_2" departPos="4.60" departSpeed="0.00" departDelay="0.71" arrival="60.00" arrivalLane="-E2_1" arrivalPos="83.27" arrivalSpeed="13.33" duration="31.00" routeLength="197.80" waitingTime="7.00" waitingCount="1" stopTime="0.00" timeLoss="15.88" rerouteNo="0" devices="tripinfo_-E1__0__background.4" vType="background" speedFactor="1.04" vaporized=""/>
    <tripinfo id="-E1__0__ego.2" depart="18.00" departLane="-E1_3" departPos="4.60" departSpeed="0.00" departDelay="1.25" arrival="61.00" arrivalLane="-E0_2" arrivalPos="112.16" arrivalSpeed="13.69" duration="43.00" routeLength="241.66" waitingTime="16.00" waitingCount="1" stopTime="0.00" timeLoss="25.13" rerouteNo="0" devices="tripinfo_-E1__0__ego.2" vType="ego" speedFactor="1.02" vaporized=""/>
    <tripinfo id="-E1__0__background.2" depart="9.00" departLane="-E1_3" departPos="4.60" departSpeed="0.00" departDelay="1.05" arrival="62.00" arrivalLane="-E0_1" arrivalPos="112.16" arrivalSpeed="12.21" duration="53.00" routeLength="241.66" waitingTime="21.00" waitingCount="1" stopTime="0.00" timeLoss="33.14" rerouteNo="0" devices="tripinfo_-E1__0__background.2" vType="background" speedFactor="0.91" vaporized=""/>
    <tripinfo id="-E1__0__ego.1" depart="16.00" departLane="-E1_1" departPos="4.60" departSpeed="0.00" departDelay="0.32" arrival="63.00" arrivalLane="-E0_1" arrivalPos="112.16" arrivalSpeed="13.64" duration="47.00" routeLength="241.66" waitingTime="19.00" waitingCount="1" stopTime="0.00" timeLoss="30.49" rerouteNo="0" devices="tripinfo_-E1__0__ego.1" vType="ego" speedFactor="1.07" vaporized=""/>
    <tripinfo id="-E1__0__background.3" depart="26.00" departLane="-E1_3" departPos="4.60" departSpeed="0.00" departDelay="0.78" arrival="63.00" arrivalLane="-E0_2" arrivalPos="112.16" arrivalSpeed="12.58" duration="37.00" routeLength="241.66" waitingTime="10.00" waitingCount="1" stopTime="0.00" timeLoss="19.09" rerouteNo="0" devices="tripinfo_-E1__0__background.3" vType="background" speedFactor="0.99" vaporized=""/>
    <tripinfo id="-E1__0__background.6" depart="34.00" departLane="-E1_2" departPos="4.60" departSpeed="0.00" departDelay="0.34" arrival="63.00" arrivalLane="-E2_1" arrivalPos="83.27" arrivalSpeed="12.79" duration="29.00" routeLength="197.80" waitingTime="2.00" waitingCount="1" stopTime="0.00" timeLoss="12.91" rerouteNo="0" devices="tripinfo_-E1__0__background.6" vType="background" speedFactor="0.94" vaporized=""/>
    <tripinfo id="-E1__0__background.5" depart="32.00" departLane="-E1_3" departPos="4.60" departSpeed="0.00" departDelay="0.92" arrival="65.00" arrivalLane="-E0_2" arrivalPos="112.16" arrivalSpeed="14.28" duration="33.00" routeLength="241.66" waitingTime="5.00" waitingCount="1" stopTime="0.00" timeLoss="16.14" rerouteNo="0" devices="tripinfo_-E1__0__background.5" vType="background" speedFactor="1.17" vaporized=""/>
    <tripinfo id="-E1__0__background.8" depart="44.00" departLane="-E1_3" departPos="4.60" departSpeed="0.00" departDelay="0.81" arrival="66.00" arrivalLane="-E0_2" arrivalPos="112.16" arrivalSpeed="14.36" duration="22.00" routeLength="241.66" waitingTime="0.00" waitingCount="0" stopTime="0.00" timeLoss="5.27" rerouteNo="0" devices="tripinfo_-E1__0__background.8" vType="background" speedFactor="1.04" vaporized=""/>
    <tripinfo id="-E1__0__ego.4" depart="47.00" departLane="-E1_1" departPos="4.60" departSpeed="0.00" departDelay="0.98" arrival="68.00" arrivalLane="-E2_1" arrivalPos="83.27" arrivalSpeed="12.29" duration="21.00" routeLength="197.80" waitingTime="0.00" waitingCount="0" stopTime="0.00" timeLoss="5.34" rerouteNo="0" devices="tripinfo_-E1__0__ego.4" vType="ego" speedFactor="0.97" vaporized=""/>
    <tripinfo id="E0__0__background.7" depart="26.00" departLane="E0_1" departPos="4.60" departSpeed="0.00" departDelay="0.10" arrival="73.00" arrivalLane="E1_1" arrivalPos="110.26" arrivalSpeed="13.80" duration="47.00" routeLength="241.93" waitingTime="20.00" waitingCount="1" stopTime="0.00" timeLoss="29.53" rerouteNo="0" devices="tripinfo_E0__0__background.7" vType="background" speedFactor="1.01" vaporized=""/>
    <tripinfo id="E0__0__background.9" depart="30.00" departLane="E0_2" departPos="4.60" departSpeed="0.00" departDelay="1.21" arrival="73.00" arrivalLane="-E2_2" arrivalPos="83.27" arrivalSpeed="13.95" duration="43.00" routeLength="215.15" waitingTime="16.00" waitingCount="1" stopTime="0.00" timeLoss="27.79" rerouteNo="0" devices="tripinfo_E0__0__background.9" vType="background" speedFactor="1.10" vaporized=""/>
    <tripinfo id="E0__0__background.8" depart="27.00" departLane="E0_3" departPos="4.60" departSpeed="0.00" departDelay="0.30" arrival="74.00" arrivalLane="E1_2" arrivalPos="110.26" arrivalSpeed="11.65" duration="47.00" routeLength="241.93" waitingTime="19.00" waitingCount="1" stopTime="0.00" timeLoss="28.07" rerouteNo="0" devices="tripinfo_E0__0__background.8" vType="background" speedFactor="0.92" vaporized=""/>
    <tripinfo id="E0__0__rescue.0" depart="40.00" departLane="E0_2" departPos="5.10" departSpeed="0.00" departDelay="0.85" arrival="75.00" arrivalLane="-E2_2" arrivalPos="83.27" arrivalSpeed="18.18" duration="35.00" routeLength="214.65" waitingTime="10.00" waitingCount="1" stopTime="0.00" timeLoss="24.90" rerouteNo="0" devices="tripinfo_E0__0__rescue.0" vType="rescue" speedFactor="1.71" vaporized=""/>
    <tripinfo id="E0__0__ego.2" depart="41.00" departLane="E0_1" departPos="4.60" departSpeed="0.00" departDelay="0.46" arrival="75.00" arrivalLane="E1_1" arrivalPos="110.26" arrivalSpeed="13.00" duration="34.00" routeLength="241.93" waitingTime="8.00" waitingCount="1" stopTime="0.00" timeLoss="16.70" rerouteNo="0" devices="tripinfo_E0__0__ego.2" vType="ego" speedFactor="1.02" vaporized=""/>
    <tripinfo id="E0__0__ego.1" depart="37.00" departLane="E0_3" departPos="4.60" departSpeed="0.00" departDelay="0.21" arrival="76.00" arrivalLane="E1_2" arrivalPos="110.26" arrivalSpeed="12.60" duration="39.00" routeLength="241.93" waitingTime="12.00" waitingCount="1" stopTime="0.00" timeLoss="20.24" rerouteNo="0" devices="tripinfo_E0__0__ego.1" vType="ego" speedFactor="0.94" vaporized=""/>
    <tripinfo id="E2__0__ego.2" depart="27.00" departLane="E2_3" departPos="4.60" departSpeed="0.00" departDelay="0.05" arrival="82.00" arrivalLane="E1_1" arrivalPos="110.26" arrivalSpeed="14.00" duration="55.00" routeLength="215.24" waitingTime="27.00" waitingCount="2" stopTime="0.00" timeLoss="39.32" rerouteNo="0" devices="tripinfo_E2__0__ego.2" vType="ego" speedFactor="1.03" vaporized=""/>
    <tripinfo id="E2__0__background.3" depart="36.00" departLane="E2_2" departPos="4.60" departSpeed="0.00" departDelay="0.09" arrival="82.00" arrivalLane="-E0_1" arrivalPos="112.16" arrivalSpeed="12.74" duration="46.00" routeLength="201.84" waitingTime="19.00" waitingCount="1" stopTime="0.00" timeLoss="28.93" rerouteNo="0" devices="tripinfo_E2__0__background.3" vType="background" speedFactor="0.93" vaporized=""/>
    <tripinfo id="E2__0__background.5" depart="49.00" departLane="E2_1" departPos="4.60" departSpeed="0.00" departDelay="0.77" arrival="82.00" arrivalLane="E1_2" arrivalPos="110.26" arrivalSpeed="14.23" duration="33.00" routeLength="210.29" waitingTime="6.00" waitingCount="1" stopTime="0.00" timeLoss="17.67" rerouteNo="0" devices="tripinfo_E2__0__background.5" vType="background" speedFactor="1.04" vaporized=""/>
    <tripinfo id="E2__0__background.4" depart="42.00" departLane="E2_3" departPos="4.60" departSpeed="0.00" departDelay="0.70" arrival="84.00" arrivalLane="-E0_1" arrivalPos="112.16" arrivalSpeed="13.26" duration="42.00" routeLength="201.84" waitingTime="17.00" waitingCount="1" stopTime="0.00" timeLoss="25.49" rerouteNo="0" devices="tripinfo_E2__0__background.4" vType="background" speedFactor="0.98" vaporized=""/>
    <tripinfo id="E2__0__background.6" depart="57.00" departLane="E2_1" departPos="4.60" departSpeed="0.00" departDelay="0.85" arrival="86.00" arrivalLane="E1_1" arrivalPos="110.26" arrivalSpeed="11.17" duration="29.00" routeLength="215.24" waitingTime="2.00" waitingCount="1" stopTime="0.00" timeLoss="9.13" rerouteNo="0" devices="tripinfo_E2__0__background.6" vType="background" speedFactor="0.82" vaporized=""/>
    <tripinfo id="-E1__0__background.10" depart="49.00" departLane="-E1_3" departPos="4.60" departSpeed="0.00" departDelay="0.86" arrival="90.00" arrivalLane="-E0_2" arrivalPos="112.16" arrivalSpeed="12.84" duration="41.00" routeLength="241.66" waitingTime="12.00" waitingCount="1" stopTime="0.00" timeLoss="22.52" rerouteNo="0" devices="tripinfo_-E1__0__background.10" vType="background" speedFactor="0.94" vaporized=""/>
    <tripinfo id="-E1__0__background.11" depart="52.00" departLane="-E1_3" departPos="4.60" departSpeed="0.00" departDelay="0.48" arrival="92.00" arrivalLane="-E0_2" arrivalPos="112.16" arrivalSpeed="14.17" duration="40.00" routeLength="241.66" waitingTime="11.00" waitingCount="1" stopTime="0.00" timeLoss="23.32" rerouteNo="0" devices="tripinfo_-E1__0__background.11" vType="background" speedFactor="1.20" vaporized=""/>
    <tripinfo id="-E1__0__background.9" depart="47.00" departLane="-E1_3" departPos="4.60" departSpeed="0.00" departDelay="0.98" arrival="93.00" arrivalLane="-E0_1" arrivalPos="112.16" arrivalSpeed="9.31" duration="46.00" routeLength="241.66" waitingTime="13.00" waitingCount="1" stopTime="0.00" timeLoss="21.11" rerouteNo="0" devices="tripinfo_-E1__0__background.9" vType="background" speedFactor="0.70" vaporized=""/>
    <tripinfo id="-E1__1__ego.0" depart="64.00" departLane="-E1_1" departPos="4.60" departSpeed="0.00" departDelay="0.53" arrival="93.00" arrivalLane="-E0_2" arrivalPos="112.16" arrivalSpeed="14.93" duration="29.00" routeLength="241.66" waitingTime="3.00" waitingCount="1" stopTime="0.00" timeLoss="13.15" rerouteNo="0" devices="tripinfo_-E1__1__ego.0" vType="ego" speedFactor="1.10" vaporized=""/>
    <tripinfo id="-E1__0__background.12" depart="55.00" departLane="-E1_3" departPos="4.60" departSpeed="0.00" departDelay="1.55" arrival="95.00" arrivalLane="-E0_1" arrivalPos="112.16" arrivalSpeed="11.99" duration="40.00" routeLength="241.66" waitingTime="7.00" waitingCount="1" stopTime="0.00" timeLoss="22.89" rerouteNo="0" devices="tripinfo_-E1__0__background.12" vType="background" speedFactor="1.04" vaporized=""/>
    <tripinfo id="-E1__1__ego.1" depart="71.00" departLane="-E1_3" departPos="4.60" departSpeed="0.00" departDelay="0.83" arrival="95.00" arrivalLane="-E0_2" arrivalPos="112.16" arrivalSpeed="14.84" duration="24.00" routeLength="241.66" waitingTime="0.00" waitingCount="0" stopTime="0.00" timeLoss="7.44" rerouteNo="0" devices="tripinfo_-E1__1__ego.1" vType="ego" speedFactor="1.07" vaporized=""/>
    <tripinfo id="-E1__1__ego.2" depart="73.00" departLane="-E1_1" departPos="4.60" departSpeed="0.00" departDelay="0.71" arrival="96.00" arrivalLane="-E2_1" arrivalPos="83.27" arrivalSpeed="11.15" duration="23.00" routeLength="197.80" waitingTime="0.00" waitingCount="0" stopTime="0.00" timeLoss="5.41" rerouteNo="0" devices="tripinfo_-E1__1__ego.2" vType="ego" speedFactor="0.85" vaporized=""/>
    <tripinfo id="-E1__1__background.0" depart="62.00" departLane="-E1_1" departPos="4.60" departSpeed="0.00" departDelay="0.28" arrival="97.00" arrivalLane="-E0_1" arrivalPos="112.16" arrivalSpeed="12.18" duration="35.00" routeLength="241.66" waitingTime="4.00" waitingCount="1" stopTime="0.00" timeLoss="15.48" rerouteNo="0" devices="tripinfo_-E1__1__background.0" vType="background" speedFactor="0.92" vaporized=""/>
    <tripinfo id="-E1__1__background.1" depart="75.00" departLane="-E1_2" departPos="4.60" departSpeed="0.00" departDelay="0.99" arrival="98.00" arrivalLane="-E2_1" arrivalPos="83.27" arrivalSpeed="14.46" duration="23.00" routeLength="197.80" waitingTime="0.00" waitingCount="0" stopTime="0.00" timeLoss="9.27" rerouteNo="0" devices="tripinfo_-E1__1__background.1" vType="background" speedFactor="1.19" vaporized=""/>
    <tripinfo id="E0__0__background.10" depart="42.00" departLane="E0_2" departPos="4.60" departSpeed="0.00" departDelay="1.15" arrival="104.00" arrivalLane="E1_2" arrivalPos="110.26" arrivalSpeed="11.78" duration="62.00" routeLength="241.93" waitingTime="26.00" waitingCount="2" stopTime="0.00" timeLoss="41.50" rerouteNo="0" devices="tripinfo_E0__0__background.10" vType="background" speedFactor="0.89" vaporized=""/>
    <tripinfo id="E0__0__ego.3" depart="48.00" departLane="E0_1" departPos="4.60" departSpeed="0.00" departDelay="0.08" arrival="104.00" arrivalLane="E1_1" arrivalPos="110.26" arrivalSpeed="11.55" duration="56.00" routeLength="241.93" waitingTime="23.00" waitingCount="2" stopTime="0.00" timeLoss="36.26" rerouteNo="0" devices="tripinfo_E0__0__ego.3" vType="ego" speedFactor="0.92" vaporized=""/>
    <tripinfo id="E0__0__background.11" depart="45.00" departLane="E0_2" departPos="4.60" departSpeed="0.00" departDelay="0.54" arrival="105.00" arrivalLane="E1_1" arrivalPos="110.26" arrivalSpeed="13.46" duration="60.00" routeLength="241.93" waitingTime="26.00" waitingCount="2" stopTime="0.00" timeLoss="42.14" rerouteNo="0" devices="tripinfo_E0__0__background.11" vType="background" speedFactor="0.99" vaporized=""/>
    <tripinfo id="E0__0__ego.4" depart="53.00" departLane="E0_2" departPos="4.60" departSpeed="0.00" departDelay="0.87" arrival="105.00" arrivalLane="E1_2" arrivalPos="110.26" arrivalSpeed="13.01" duration="52.00" routeLength="241.93" waitingTime="21.00" waitingCount="1" stopTime="0.00" timeLoss="35.32" rerouteNo="0" devices="tripinfo_E0__0__ego.4" vType="ego" speedFactor="1.06" vaporized=""/>
    <tripinfo id="E2__1__background.0" depart="62.00" departLane="E2_2" departPos="4.60" departSpeed="0.00" departDelay="0.46" arrival="110.00" arrivalLane="-E0_1" arrivalPos="112.16" arrivalSpeed="13.17" duration="48.00" routeLength="201.84" waitingTime="22.00" waitingCount="1" stopTime="0.00" timeLoss="32.63" rerouteNo="0" devices="tripinfo_E2__1__background.0" vType="background" speedFactor="1.01" vaporized=""/>
    <tripinfo id="E2__1__background.1" depart="65.00" departLane="E2_3" departPos="4.60" departSpeed="0.00" departDelay="1.57" arrival="111.00" arrivalLane="E1_2" arrivalPos="110.26" arrivalSpeed="12.22" duration="46.00" routeLength="210.29" waitingTime="21.00" waitingCount="1" stopTime="0.00" timeLoss="29.15" rerouteNo="0" devices="tripinfo_E2__1__background.1" vType="background" speedFactor="0.95" vaporized=""/>
    <tripinfo id="E2__1__ego.0" depart="72.00" departLane="E2_2" departPos="4.60" departSpeed="0.00" departDelay="0.74" arrival="112.00" arrivalLane="E1_1" arrivalPos="110.26" arrivalSpeed="12.24" duration="40.00" routeLength="215.24" waitingTime="14.00" waitingCount="1" stopTime="0.00" timeLoss="22.84" rerouteNo="0" devices="tripinfo_E2__1__ego.0" vType="ego" speedFactor="0.95" vaporized=""/>
    <tripinfo id="E2__1__background.3" depart="74.00" departLane="E2_2" departPos="4.60" departSpeed="0.00" departDelay="0.33" arrival="114.00" arrivalLane="-E0_1" arrivalPos="112.16" arrivalSpeed="12.56" duration="40.00" routeLength="201.84" waitingTime="9.00" waitingCount="1" stopTime="0.00" timeLoss="23.47" rerouteNo="0" devices="tripinfo_E2__1__background.3" vType="background" speedFactor="0.99" vaporized=""/>
    <tripinfo id="E2__1__background.7" depart="79.00" departLane="E2_3" departPos="4.60" departSpeed="0.00" departDelay="0.16" arrival="115.00" arrivalLane="E1_2" arrivalPos="110.26" arrivalSpeed="12.45" duration="36.00" routeLength="210.29" waitingTime="8.00" waitingCount="1" stopTime="0.00" timeLoss="18.44" rerouteNo="0" devices="tripinfo_E2__1__background.7" vType="background" speedFactor="0.92" vaporized=""/>
    <tripinfo id="E2__1__background.2" depart="73.00" departLane="E2_1" departPos="4.60" departSpeed="0.00" departDelay="0.59" arrival="116.00" arrivalLane="E1_1" arrivalPos="110.26" arrivalSpeed="10.66" duration="43.00" routeLength="215.24" waitingTime="12.00" waitingCount="1" stopTime="0.00" timeLoss="22.59" rerouteNo="0" devices="tripinfo_E2__1__background.2" vType="background" speedFactor="0.82" vaporized=""/>
    <tripinfo id="-E1__1__background.2" depart="84.00" departLane="-E1_1" departPos="4.60" departSpeed="0.00" departDelay="0.84" arrival="118.00" arrivalLane="-E0_1" arrivalPos="112.16" arrivalSpeed="13.23" duration="34.00" routeLength="241.66" waitingTime="8.00" waitingCount="1" stopTime="0.00" timeLoss="16.00" rerouteNo="0" devices="tripinfo_-E1__1__background.2" vType="background" speedFactor="0.98" vaporized=""/>
    <tripinfo id="-E1__1__background.3" depart="88.00" departLane="-E1_2" departPos="4.60" departSpeed="0.00" departDelay="0.65" arrival="118.00" arrivalLane="-E0_2" arrivalPos="112.16" arrivalSpeed="13.94" duration="30.00" routeLength="241.66" waitingTime="3.00" waitingCount="1" stopTime="0.00" timeLoss="13.79" rerouteNo="0" devices="tripinfo_-E1__1__background.3" vType="background" speedFactor="1.12" vaporized=""/>
    <tripinfo id="E0__1__background.1" depart="65.00" departLane="E0_1" departPos="4.60" departSpeed="0.00" departDelay="0.46" arrival="126.00" arrivalLane="E1_1" arrivalPos="110.26" arrivalSpeed="14.73" duration="61.00" routeLength="241.93" waitingTime="30.00" waitingCount="2" stopTime="0.00" timeLoss="44.25" rerouteNo="0" devices="tripinfo_E0__1__background.1" vType="background" speedFactor="1.12" vaporized=""/>
    <tripinfo id="E0__1__ego.2" depart="91.00" departLane="E0_1" departPos="4.60" departSpeed="0.00" departDelay="0.11" arrival="126.00" arrivalLane="-E2_2" arrivalPos="83.27" arrivalSpeed="11.89" duration="35.00" routeLength="215.15" waitingTime="7.00" waitingCount="1" stopTime="0.00" timeLoss="17.09" rerouteNo="0" devices="tripinfo_E0__1__ego.2" vType="ego" speedFactor="0.91" vaporized=""/>
    <tripinfo id="E0__0__background.12" depart="56.00" departLane="E0_3" departPos="4.60" departSpeed="0.00" departDelay="1.06" arrival="129.00" arrivalLane="E1_2" arrivalPos="110.26" arrivalSpeed="9.65" duration="73.00" routeLength="241.93" waitingTime="35.00" waitingCount="2" stopTime="0.00" timeLoss="49.24" rerouteNo="0" devices="tripinfo_E0__0__background.12" vType="background" speedFactor="0.73" vaporized=""/>
    <tripinfo id="E0__1__background.0" depart="61.00" departLane="E0_3" departPos="4.60" departSpeed="0.00" departDelay="0.97" arrival="129.00" arrivalLane="E1_1" arrivalPos="110.26" arrivalSpeed="12.23" duration="68.00" routeLength="241.93" waitingTime="34.00" waitingCount="2" stopTime="0.00" timeLoss="48.84" rerouteNo="0" devices="tripinfo_E0__1__background.0" vType="background" speedFactor="0.94" vaporized=""/>
    <tripinfo id="E0__1__background.2" depart="70.00" departLane="E0_2" departPos="4.60" departSpeed="0.00" departDelay="0.69" arrival="131.00" arrivalLane="E1_2" arrivalPos="110.26" arrivalSpeed="13.18" duration="61.00" routeLength="241.93" waitingTime="24.00" waitingCount="2" stopTime="0.00" timeLoss="42.80" rerouteNo="0" devices="tripinfo_E0__1__background.2" vType="background" speedFactor="0.98" vaporized=""/>
    <tripinfo id="E2__1__background.6" depart="81.00" departLane="E2_2" departPos="4.60" departSpeed="0.00" departDelay="4.27" arrival="134.00" arrivalLane="E1_2" arrivalPos="110.26" arrivalSpeed="14.78" duration="53.00" routeLength="210.29" waitingTime="21.00" waitingCount="2" stopTime="0.00" timeLoss="38.30" rerouteNo="0" devices="tripinfo_E2__1__background.6" vType="background" speedFactor="1.10" vaporized=""/>
    <tripinfo id="E2__1__background.4" depart="81.00" departLane="E2_1" departPos="4.60" departSpeed="0.00" departDelay="5.41" arrival="136.00" arrivalLane="E1_2" arrivalPos="110.26" arrivalSpeed="14.56" duration="55.00" routeLength="210.29" waitingTime="20.00" waitingCount="2" stopTime="0.00" timeLoss="40.11" rerouteNo="0" devices="tripinfo_E2__1__background.4" vType="background" speedFactor="1.12" vaporized=""/>
    <tripinfo id="E2__1__background.9" depart="90.00" departLane="E2_1" departPos="4.60" departSpeed="0.00" departDelay="0.17" arrival="136.00" arrivalLane="-E0_1" arrivalPos="112.16" arrivalSpeed="11.04" duration="46.00" routeLength="201.84" waitingTime="16.00" waitingCount="1" stopTime="0.00" timeLoss="26.87" rerouteNo="0" devices="tripinfo_E2__1__background.9" vType="background" speedFactor="0.82" vaporized=""/>
    <tripinfo id="E2__1__background.5" depart="77.00" departLane="E2_1" departPos="4.60" departSpeed="0.00" departDelay="0.54" arrival="138.00" arrivalLane="E1_1" arrivalPos="110.26" arrivalSpeed="10.08" duration="61.00" routeLength="215.24" waitingTime="26.00" waitingCount="3" stopTime="0.00" timeLoss="40.32" rerouteNo="0" devices="tripinfo_E2__1__background.5" vType="background" speedFactor="0.79" vaporized=""/>
    <tripinfo id="E2__1__background.10" depart="98.00" departLane="E2_1" departPos="4.60" departSpeed="0.00" departDelay="0.15" arrival="138.00" arrivalLane="-E0_1" arrivalPos="112.16" arrivalSpeed="12.73" duration="40.00" routeLength="201.84" waitingTime="12.00" waitingCount="1" stopTime="0.00" timeLoss="24.03" rerouteNo="0" devices="tripinfo_E2__1__background.10" vType="background" speedFactor="1.01" vaporized=""/>
    <tripinfo id="E2__1__ego.1" depart="76.00" departLane="E2_2" departPos="4.60" departSpeed="0.00" departDelay="0.92" arrival="140.00" arrivalLane="E1_1" arrivalPos="110.26" arrivalSpeed="12.69" duration="64.00" routeLength="215.24" waitingTime="26.00" waitingCount="3" stopTime="0.00" timeLoss="46.51" rerouteNo="0" devices="tripinfo_E2__1__ego.1" vType="ego" speedFactor="0.96" vaporized=""/>