<?xml version="1.0" encoding="UTF-8"?>

<!-- generated on 2023-12-01 22:44:07 by Eclipse SUMO GUI Version 1.18.0
<configuration xmlns:xsi="http://www.w3.org/2001/XMLSchema-instance" xsi:noNamespaceSchemaLocation="http://sumo.dlr.de/xsd/sumoConfiguration.xsd">

    <input>
        <net-file value="/home/wmn/TrafficAlpha/TSC-LLM/ConventionalMethods/../TSCScenario/3way/env/3way.net.xml"/>
        <route-files value="/home/wmn/TrafficAlpha/TSC-LLM/ConventionalMethods/../TSCScenario/3way/env/../routes/vehicle.rou.xml"/>
        <additional-files value="/home/wmn/TrafficAlpha/TSC-LLM/ConventionalMethods/../TSCScenario/3way/env/../add/tls.add.xml,/home/wmn/TrafficAlpha/TSC-LLM/ConventionalMethods/../TSCScenario/3way/env/ ../add/e2.add.xml"/>
    </input>

    <output>
        <tripinfo-output value="/home/wmn/TrafficAlpha/TSC-LLM/ConventionalMethods/./3way_SOTL.tripinfo.xml"/>
    </output>

    <processing>
        <time-to-teleport value="-1"/>
        <waiting-time-memory value="10000"/>
        <max-depart-delay value="100000"/>
    </processing>

    <report>
        <no-warnings value="true"/>
        <no-step-log value="true"/>
    </report>

    <traci_server>
        <remote-port value="55757"/>
    </traci_server>

    <random_number>
        <random value="true"/>
    </random_number>

    <gui_only>
        <quit-on-end value="true"/>
        <start value="true"/>
    </gui_only>

</configuration>
-->

<tripinfos xmlns:xsi="http://www.w3.org/2001/XMLSchema-instance" xsi:noNamespaceSchemaLocation="http://sumo.dlr.de/xsd/tripinfo_file.xsd">
    <tripinfo id="E2__0__background.0" depart="6.00" departLane="E2_1" departPos="4.60" departSpeed="0.00" departDelay="0.32" arrival="27.00" arrivalLane="-E0_1" arrivalPos="112.16" arrivalSpeed="14.15" duration="21.00" routeLength="201.84" waitingTime="0.00" waitingCount="0" stopTime="0.00" timeLoss="6.06" rerouteNo="0" devices="tripinfo_E2__0__background.0" vType="background" speedFactor="1.10" vaporized=""/>
    <tripinfo id="E2__0__background.1" depart="8.00" departLane="E2_3" departPos="4.60" departSpeed="0.00" departDelay="0.29" arrival="30.00" arrivalLane="E1_2" arrivalPos="110.26" arrivalSpeed="13.43" duration="22.00" routeLength="210.29" waitingTime="0.00" waitingCount="0" stopTime="0.00" timeLoss="6.35" rerouteNo="0" devices="tripinfo_E2__0__background.1" vType="background" speedFactor="1.03" vaporized=""/>
    <tripinfo id="E2__0__background.2" depart="11.00" departLane="E2_1" departPos="4.60" departSpeed="0.00" departDelay="0.18" arrival="33.00" arrivalLane="E1_1" arrivalPos="110.26" arrivalSpeed="14.15" duration="22.00" routeLength="215.24" waitingTime="0.00" waitingCount="0" stopTime="0.00" timeLoss="6.58" rerouteNo="0" devices="tripinfo_E2__0__background.2" vType="background" speedFactor="1.19" vaporized=""/>
    <tripinfo id="-E1__0__ego.0" depart="1.00" departLane="-E1_1" departPos="4.60" departSpeed="0.00" departDelay="0.16" arrival="37.00" arrivalLane="-E0_1" arrivalPos="112.16" arrivalSpeed="13.84" duration="36.00" routeLength="241.66" waitingTime="8.00" waitingCount="1" stopTime="0.00" timeLoss="18.86" rerouteNo="0" devices="tripinfo_-E1__0__ego.0" vType="ego" speedFactor="1.05" vaporized=""/>
    <tripinfo id="-E1__0__background.1" depart="6.00" departLane="-E1_3" departPos="4.60" departSpeed="0.00" departDelay="0.01" arrival="38.00" arrivalLane="-E0_2" arrivalPos="112.16" arrivalSpeed="12.29" duration="32.00" routeLength="241.66" waitingTime="3.00" waitingCount="1" stopTime="0.00" timeLoss="12.65" rerouteNo="0" devices="tripinfo_-E1__0__background.1" vType="background" speedFactor="0.94" vaporized=""/>
    <tripinfo id="-E1__0__background.0" depart="5.00" departLane="-E1_2" departPos="4.60" departSpeed="0.00" departDelay="0.84" arrival="39.00" arrivalLane="-E0_1" arrivalPos="112.16" arrivalSpeed="13.78" duration="34.00" routeLength="241.66" waitingTime="6.00" waitingCount="1" stopTime="0.00" timeLoss="17.12" rerouteNo="0" devices="tripinfo_-E1__0__background.0" vType="background" speedFactor="1.12" vaporized=""/>
    <tripinfo id="-E1__0__background.2" depart="8.00" departLane="-E1_2" departPos="4.60" departSpeed="0.00" departDelay="0.05" arrival="40.00" arrivalLane="-E0_2" arrivalPos="112.16" arrivalSpeed="11.83" duration="32.00" routeLength="241.66" waitingTime="1.00" waitingCount="1" stopTime="0.00" timeLoss="12.60" rerouteNo="0" devices="tripinfo_-E1__0__background.2" vType="background" speedFactor="0.93" vaporized=""/>
    <tripinfo id="E0__0__background.0" depart="4.00" departLane="E0_1" departPos="4.60" departSpeed="0.00" departDelay="0.42" arrival="44.00" arrivalLane="E1_1" arrivalPos="110.26" arrivalSpeed="14.73" duration="40.00" routeLength="241.93" waitingTime="14.00" waitingCount="1" stopTime="0.00" timeLoss="23.56" rerouteNo="0" devices="tripinfo_E0__0__background.0" vType="background" speedFactor="1.11" vaporized=""/>
    <tripinfo id="E0__0__background.2" depart="9.00" departLane="E0_3" departPos="4.60" departSpeed="0.00" departDelay="2.20" arrival="44.00" arrivalLane="-E2_2" arrivalPos="83.27" arrivalSpeed="12.83" duration="35.00" routeLength="215.15" waitingTime="8.00" waitingCount="1" stopTime="0.00" timeLoss="18.56" rerouteNo="0" devices="tripinfo_E0__0__background.2" vType="background" speedFactor="1.00" vaporized=""/>
    <tripinfo id="E0__0__background.1" depart="7.00" departLane="E0_1" departPos="4.60" departSpeed="0.00" departDelay="0.46" arrival="45.00" arrivalLane="E1_2" arrivalPos="110.26" arrivalSpeed="13.19" duration="38.00" routeLength="241.93" waitingTime="9.00" waitingCount="1" stopTime="0.00" timeLoss="19.80" rerouteNo="0" devices="tripinfo_E0__0__background.1" vType="background" speedFactor="1.00" vaporized=""/>
    <tripinfo id="E0__0__background.4" depart="13.00" departLane="E0_1" departPos="4.60" departSpeed="0.00" departDelay="1.97" arrival="46.00" arrivalLane="E1_1" arrivalPos="110.26" arrivalSpeed="14.25" duration="33.00" routeLength="241.93" waitingTime="6.00" waitingCount="1" stopTime="0.00" timeLoss="16.83" rerouteNo="0" devices="tripinfo_E0__0__background.4" vType="background" speedFactor="1.12" vaporized=""/>
    <tripinfo id="E0__0__background.3" depart="12.00" departLane="E0_2" departPos="4.60" departSpeed="0.00" departDelay="1.12" arrival="47.00" arrivalLane="E1_2" arrivalPos="110.26" arrivalSpeed="12.67" duration="35.00" routeLength="241.93" waitingTime="6.00" waitingCount="1" stopTime="0.00" timeLoss="15.88" rerouteNo="0" devices="tripinfo_E0__0__background.3" vType="background" speedFactor="0.93" vaporized=""/>
    <tripinfo id="E2__0__ego.0" depart="20.00" departLane="E2_1" departPos="4.60" departSpeed="0.00" departDelay="0.72" arrival="54.00" arrivalLane="E1_1" arrivalPos="110.26" arrivalSpeed="13.53" duration="34.00" routeLength="215.24" waitingTime="8.00" waitingCount="1" stopTime="0.00" timeLoss="17.41" rerouteNo="0" devices="tripinfo_E2__0__ego.0" vType="ego" speedFactor="1.01" vaporized=""/>
    <tripinfo id="E2__0__ego.1" depart="23.00" departLane="E2_3" departPos="4.60" departSpeed="0.00" departDelay="2.68" arrival="54.00" arrivalLane="E1_2" arrivalPos="110.26" arrivalSpeed="13.27" duration="31.00" routeLength="210.29" waitingTime="4.00" waitingCount="1" stopTime="0.00" timeLoss="15.68" rerouteNo="0" devices="tripinfo_E2__0__ego.1" vType="ego" speedFactor="1.04" vaporized=""/>
    <tripinfo id="E2__0__ego.2" depart="27.00" departLane="E2_3" departPos="4.60" departSpeed="0.00" departDelay="0.05" arrival="56.00" arrivalLane="E1_2" arrivalPos="110.26" arrivalSpeed="12.46" duration="29.00" routeLength="210.29" waitingTime="1.00" waitingCount="1" stopTime="0.00" timeLoss="12.39" rerouteNo="0" devices="tripinfo_E2__0__ego.2" vType="ego" speedFactor="0.95" vaporized=""/>
    <tripinfo id="-E1__0__ego.3" depart="24.00" departLane="-E1_2" departPos="4.60" departSpeed="0.00" departDelay="0.65" arrival="59.00" arrivalLane="-E2_1" arrivalPos="83.27" arrivalSpeed="11.63" duration="35.00" routeLength="197.80" waitingTime="10.00" waitingCount="1" stopTime="0.00" timeLoss="16.58" rerouteNo="0" devices="tripinfo_-E1__0__ego.3" vType="ego" speedFactor="0.84" vaporized=""/>
    <tripinfo id="-E1__0__ego.1" depart="16.00" departLane="-E1_1" departPos="4.60" departSpeed="0.00" departDelay="0.32" arrival="61.00" arrivalLane="-E0_1" arrivalPos="112.16" arrivalSpeed="12.18" duration="45.00" routeLength="241.66" waitingTime="16.00" waitingCount="1" stopTime="0.00" timeLoss="26.05" rerouteNo="0" devices="tripinfo_-E1__0__ego.1" vType="ego" speedFactor="0.95" vaporized=""/>
    <tripinfo id="-E1__0__ego.2" depart="18.00" departLane="-E1_2" departPos="4.60" departSpeed="0.00" departDelay="1.25" arrival="61.00" arrivalLane="-E0_2" arrivalPos="112.16" arrivalSpeed="12.39" duration="43.00" routeLength="241.66" waitingTime="13.00" waitingCount="1" stopTime="0.00" timeLoss="24.13" rerouteNo="0" devices="tripinfo_-E1__0__ego.2" vType="ego" speedFactor="0.96" vaporized=""/>
    <tripinfo id="-E1__0__background.4" depart="29.00" departLane="-E1_3" departPos="4.60" departSpeed="0.00" departDelay="0.71" arrival="61.00" arrivalLane="-E2_1" arrivalPos="83.27" arrivalSpeed="12.59" duration="32.00" routeLength="197.80" waitingTime="4.00" waitingCount="1" stopTime="0.00" timeLoss="15.36" rerouteNo="0" devices="tripinfo_-E1__0__background.4" vType="background" speedFactor="0.93" vaporized=""/>
    <tripinfo id="-E1__0__background.3" depart="26.00" departLane="-E1_3" departPos="4.60" departSpeed="0.00" departDelay="0.78" arrival="62.00" arrivalLane="-E0_2" arrivalPos="112.16" arrivalSpeed="14.72" duration="36.00" routeLength="241.66" waitingTime="10.00" waitingCount="1" stopTime="0.00" timeLoss="19.39" rerouteNo="0" devices="tripinfo_-E1__0__background.3" vType="background" speedFactor="1.06" vaporized=""/>
    <tripinfo id="-E1__0__background.5" depart="32.00" departLane="-E1_3" departPos="4.60" departSpeed="0.00" departDelay="0.92" arrival="63.00" arrivalLane="-E0_1" arrivalPos="112.16" arrivalSpeed="11.22" duration="31.00" routeLength="241.66" waitingTime="1.00" waitingCount="1" stopTime="0.00" timeLoss="11.21" rerouteNo="0" devices="tripinfo_-E1__0__background.5" vType="background" speedFactor="0.88" vaporized=""/>
    <tripinfo id="-E1__0__background.6" depart="34.00" departLane="-E1_2" departPos="4.60" departSpeed="0.00" departDelay="0.34" arrival="63.00" arrivalLane="-E2_1" arrivalPos="83.27" arrivalSpeed="13.79" duration="29.00" routeLength="197.80" waitingTime="2.00" waitingCount="1" stopTime="0.00" timeLoss="14.33" rerouteNo="0" devices="tripinfo_-E1__0__background.6" vType="background" speedFactor="1.05" vaporized=""/>
    <tripinfo id="E0__0__background.9" depart="29.00" departLane="E0_2" departPos="4.60" departSpeed="0.00" departDelay="0.21" arrival="67.00" arrivalLane="-E2_2" arrivalPos="83.27" arrivalSpeed="14.32" duration="38.00" routeLength="215.15" waitingTime="12.00" waitingCount="1" stopTime="0.00" timeLoss="22.79" rerouteNo="0" devices="tripinfo_E0__0__background.9" vType="background" speedFactor="1.08" vaporized=""/>
    <tripinfo id="E0__0__background.5" depart="14.00" departLane="E0_3" departPos="4.60" departSpeed="0.00" departDelay="1.68" arrival="69.00" arrivalLane="E1_2" arrivalPos="110.26" arrivalSpeed="13.09" duration="55.00" routeLength="241.93" waitingTime="20.00" waitingCount="2" stopTime="0.00" timeLoss="36.34" rerouteNo="0" devices="tripinfo_E0__0__background.5" vType="background" speedFactor="0.96" vaporized=""/>
    <tripinfo id="E0__0__background.6" depart="18.00" departLane="E0_1" departPos="4.60" departSpeed="0.00" departDelay="0.63" arrival="69.00" arrivalLane="E1_1" arrivalPos="110.26" arrivalSpeed="13.82" duration="51.00" routeLength="241.93" waitingTime="18.00" waitingCount="2" stopTime="0.00" timeLoss="33.07" rerouteNo="0" devices="tripinfo_E0__0__background.6" vType="background" speedFactor="1.01" vaporized=""/>
    <tripinfo id="E0__0__ego.0" depart="17.00" departLane="E0_3" departPos="4.60" departSpeed="0.00" departDelay="1.07" arrival="70.00" arrivalLane="E1_2" arrivalPos="110.26" arrivalSpeed="14.64" duration="53.00" routeLength="241.93" waitingTime="19.00" waitingCount="2" stopTime="0.00" timeLoss="37.39" rerouteNo="0" devices="tripinfo_E0__0__ego.0" vType="ego" speedFactor="1.12" vaporized=""/>
    <tripinfo id="E0__0__rescue.0" depart="40.00" departLane="E0_3" departPos="5.10" departSpeed="0.00" departDelay="0.85" arrival="70.00" arrivalLane="-E2_2" arrivalPos="83.27" arrivalSpeed="17.31" duration="30.00" routeLength="214.65" waitingTime="4.00" waitingCount="1" stopTime="0.00" timeLoss="19.40" rerouteNo="0" devices="tripinfo_E0__0__rescue.0" vType="rescue" speedFactor="1.53" vaporized=""/>
    <tripinfo id="E0__0__background.8" depart="28.00" departLane="E0_2" departPos="4.60" departSpeed="0.00" departDelay="1.30" arrival="71.00" arrivalLane="E1_1" arrivalPos="110.26" arrivalSpeed="13.87" duration="43.00" routeLength="241.93" waitingTime="14.00" waitingCount="1" stopTime="0.00" timeLoss="25.99" rerouteNo="0" devices="tripinfo_E0__0__background.8" vType="background" speedFactor="1.08" vaporized=""/>
    <tripinfo id="E2__0__background.5" depart="49.00" departLane="E2_3" departPos="4.60" departSpeed="0.00" departDelay="0.77" arrival="76.00" arrivalLane="E1_2" arrivalPos="110.26" arrivalSpeed="13.96" duration="27.00" routeLength="210.29" waitingTime="2.00" waitingCount="1" stopTime="0.00" timeLoss="12.22" rerouteNo="0" devices="tripinfo_E2__0__background.5" vType="background" speedFactor="1.16" vaporized=""/>
    <tripinfo id="E2__0__background.3" depart="36.00" departLane="E2_1" departPos="4.60" departSpeed="0.00" departDelay="0.09" arrival="77.00" arrivalLane="-E0_1" arrivalPos="112.16" arrivalSpeed="12.51" duration="41.00" routeLength="201.84" waitingTime="17.00" waitingCount="1" stopTime="0.00" timeLoss="24.43" rerouteNo="0" devices="tripinfo_E2__0__background.3" vType="background" speedFactor="0.96" vaporized=""/>
    <tripinfo id="E2__0__background.4" depart="42.00" departLane="E2_3" departPos="4.60" departSpeed="0.00" departDelay="0.70" arrival="79.00" arrivalLane="-E0_1" arrivalPos="112.16" arrivalSpeed="13.63" duration="37.00" routeLength="201.84" waitingTime="10.00" waitingCount="1" stopTime="0.00" timeLoss="20.77" rerouteNo="0" devices="tripinfo_E2__0__background.4" vType="background" speedFactor="1.00" vaporized=""/>
    <tripinfo id="E2__0__background.6" depart="57.00" departLane="E2_2" departPos="4.60" departSpeed="0.00" departDelay="0.85" arrival="79.00" arrivalLane="E1_1" arrivalPos="110.26" arrivalSpeed="12.55" duration="22.00" routeLength="215.24" waitingTime="0.00" waitingCount="0" stopTime="0.00" timeLoss="4.43" rerouteNo="0" devices="tripinfo_E2__0__background.6" vType="background" speedFactor="0.92" vaporized=""/>
    <tripinfo id="-E1__0__ego.4" depart="51.00" departLane="-E1_3" departPos="4.60" departSpeed="0.00" departDelay="4.98" arrival="82.00" arrivalLane="-E2_1" arrivalPos="83.27" arrivalSpeed="12.34" duration="31.00" routeLength="197.80" waitingTime="7.00" waitingCount="1" stopTime="0.00" timeLoss="15.05" rerouteNo="0" devices="tripinfo_-E1__0__ego.4" vType="ego" speedFactor="0.97" vaporized=""/>
    <tripinfo id="-E1__0__background.9" depart="47.00" departLane="-E1_3" departPos="4.60" departSpeed="0.00" departDelay="0.98" arrival="84.00" arrivalLane="-E0_2" arrivalPos="112.16" arrivalSpeed="14.50" duration="37.00" routeLength="241.66" waitingTime="12.00" waitingCount="1" stopTime="0.00" timeLoss="20.47" rerouteNo="0" devices="tripinfo_-E1__0__background.9" vType="background" speedFactor="1.22" vaporized=""/>
    <tripinfo id="-E1__0__background.8" depart="44.00" departLane="-E1_2" departPos="4.60" departSpeed="0.00" departDelay="0.81" arrival="85.00" arrivalLane="-E0_1" arrivalPos="112.16" arrivalSpeed="13.57" duration="41.00" routeLength="241.66" waitingTime="12.00" waitingCount="1" stopTime="0.00" timeLoss="23.05" rerouteNo="0" devices="tripinfo_-E1__0__background.8" vType="background" speedFactor="1.02" vaporized=""/>
    <tripinfo id="-E1__0__background.10" depart="49.00" departLane="-E1_2" departPos="4.60" departSpeed="0.00" departDelay="0.86" arrival="87.00" arrivalLane="-E0_1" arrivalPos="112.16" arrivalSpeed="14.91" duration="38.00" routeLength="241.66" waitingTime="10.00" waitingCount="1" stopTime="0.00" timeLoss="21.02" rerouteNo="0" devices="tripinfo_-E1__0__background.10" vType="background" speedFactor="1.09" vaporized=""/>
    <tripinfo id="-E1__0__background.11" depart="52.00" departLane="-E1_1" departPos="4.60" departSpeed="0.00" departDelay="0.48" arrival="87.00" arrivalLane="-E0_2" arrivalPos="112.16" arrivalSpeed="11.93" duration="35.00" routeLength="241.66" waitingTime="6.00" waitingCount="1" stopTime="0.00" timeLoss="16.54" rerouteNo="0" devices="tripinfo_-E1__0__background.11" vType="background" speedFactor="0.95" vaporized=""/>
    <tripinfo id="E0__0__background.7" depart="26.00" departLane="E0_3" departPos="4.60" departSpeed="0.00" departDelay="0.10" arrival="92.00" arrivalLane="E1_2" arrivalPos="110.26" arrivalSpeed="14.13" duration="66.00" routeLength="241.93" waitingTime="31.00" waitingCount="2" stopTime="0.00" timeLoss="49.64" rerouteNo="0" devices="tripinfo_E0__0__background.7" vType="background" speedFactor="1.13" vaporized=""/>
    <tripinfo id="E0__0__background.10" depart="41.00" departLane="E0_1" departPos="4.60" departSpeed="0.00" departDelay="0.15" arrival="92.00" arrivalLane="E1_1" arrivalPos="110.26" arrivalSpeed="14.43" duration="51.00" routeLength="241.93" waitingTime="20.00" waitingCount="2" stopTime="0.00" timeLoss="33.81" rerouteNo="0" devices="tripinfo_E0__0__background.10" vType="background" speedFactor="1.04" vaporized=""/>
    <tripinfo id="E0__0__ego.1" depart="37.00" departLane="E0_2" departPos="4.60" departSpeed="0.00" departDelay="0.21" arrival="94.00" arrivalLane="E1_2" arrivalPos="110.26" arrivalSpeed="14.58" duration="57.00" routeLength="241.93" waitingTime="24.00" waitingCount="2" stopTime="0.00" timeLoss="40.82" rerouteNo="0" devices="tripinfo_E0__0__ego.1" vType="ego" speedFactor="1.09" vaporized=""/>
    <tripinfo id="E0__0__ego.2" depart="41.00" departLane="E0_2" departPos="4.60" departSpeed="0.00" departDelay="0.46" arrival="95.00" arrivalLane="E1_1" arrivalPos="110.26" arrivalSpeed="11.83" duration="54.00" routeLength="241.93" waitingTime="17.00" waitingCount="2" stopTime="0.00" timeLoss="34.06" rerouteNo="0" devices="tripinfo_E0__0__ego.2" vType="ego" speedFactor="0.89" vaporized=""/>
    <tripinfo id="E2__1__background.0" depart="62.00" departLane="E2_3" departPos="4.60" departSpeed="0.00" departDelay="0.46" arrival="101.00" arrivalLane="-E0_1" arrivalPos="112.16" arrivalSpeed="13.66" duration="39.00" routeLength="201.84" waitingTime="14.00" waitingCount="1" stopTime="0.00" timeLoss="22.84" rerouteNo="0" devices="tripinfo_E2__1__background.0" vType="background" speedFactor="0.99" vaporized=""/>
    <tripinfo id="E2__1__background.1" depart="64.00" departLane="E2_1" departPos="4.60" departSpeed="0.00" departDelay="0.57" arrival="102.00" arrivalLane="E1_1" arrivalPos="110.26" arrivalSpeed="12.40" duration="38.00" routeLength="215.24" waitingTime="11.00" waitingCount="1" stopTime="0.00" timeLoss="21.01" rerouteNo="0" devices="tripinfo_E2__1__background.1" vType="background" speedFactor="0.96" vaporized=""/>
    <tripinfo id="E2__1__background.2" depart="73.00" departLane="E2_3" departPos="4.60" departSpeed="0.00" departDelay="0.59" arrival="102.00" arrivalLane="E1_2" arrivalPos="110.26" arrivalSpeed="11.82" duration="29.00" routeLength="210.29" waitingTime="2.00" waitingCount="1" stopTime="0.00" timeLoss="10.45" rerouteNo="0" devices="tripinfo_E2__1__background.2" vType="background" speedFactor="0.87" vaporized=""/>
    <tripinfo id="E2__1__background.3" depart="74.00" departLane="E2_1" departPos="4.60" departSpeed="0.00" departDelay="0.33" arrival="102.00" arrivalLane="-E0_1" arrivalPos="112.16" arrivalSpeed="13.86" duration="28.00" routeLength="201.84" waitingTime="3.00" waitingCount="1" stopTime="0.00" timeLoss="13.91" rerouteNo="0" devices="tripinfo_E2__1__background.3" vType="background" speedFactor="1.20" vaporized=""/>
    <tripinfo id="E2__1__ego.0" depart="72.00" departLane="E2_1" departPos="4.60" departSpeed="0.00" departDelay="0.74" arrival="104.00" arrivalLane="E1_1" arrivalPos="110.26" arrivalSpeed="13.34" duration="32.00" routeLength="215.24" waitingTime="6.00" waitingCount="1" stopTime="0.00" timeLoss="15.90" rerouteNo="0" devices="tripinfo_E2__1__ego.0" vType="ego" speedFactor="1.04" vaporized=""/>
    <tripinfo id="E2__1__ego.1" depart="76.00" departLane="E2_3" departPos="4.60" departSpeed="0.00" departDelay="0.92" arrival="105.00" arrivalLane="E1_2" arrivalPos="110.26" arrivalSpeed="13.08" duration="29.00" routeLength="210.29" waitingTime="1.00" waitingCount="1" stopTime="0.00" timeLoss="12.14" rerouteNo="0" devices="tripinfo_E2__1__ego.1" vType="ego" speedFactor="0.98" vaporized=""/>
    <tripinfo id="-E1__1__ego.2" depart="73.00" departLane="-E1_1" departPos="4.60" departSpeed="0.00" departDelay="0.71" arrival="106.00" arrivalLane="-E2_1" arrivalPos="83.27" arrivalSpeed="13.05" duration="33.00" routeLength="197.80" waitingTime="8.00" waitingCount="1" stopTime="0.00" timeLoss="17.83" rerouteNo="0" devices="tripinfo_-E1__1__ego.2" vType="ego" speedFactor="1.03" vaporized=""/>
    <tripinfo id="-E1__1__background.0" depart="62.00" departLane="-E1_1" departPos="4.60" departSpeed="0.00" departDelay="0.28" arrival="108.00" arrivalLane="-E0_2" arrivalPos="112.16" arrivalSpeed="14.08" duration="46.00" routeLength="241.66" waitingTime="16.00" waitingCount="1" stopTime="0.00" timeLoss="29.33" rerouteNo="0" devices="tripinfo_-E1__1__background.0" vType="background" speedFactor="1.09" vaporized=""/>
    <tripinfo id="-E1__1__background.1" depart="76.00" departLane="-E1_2" departPos="4.60" departSpeed="0.00" departDelay="1.99" arrival="108.00" arrivalLane="-E2_1" arrivalPos="83.27" arrivalSpeed="14.13" duration="32.00" routeLength="197.80" waitingTime="7.00" waitingCount="1" stopTime="0.00" timeLoss="17.44" rerouteNo="0" devices="tripinfo_-E1__1__background.1" vType="background" speedFactor="1.14" vaporized=""/>
    <tripinfo id="-E1__0__background.12" depart="55.00" departLane="-E1_2" departPos="4.60" departSpeed="0.00" departDelay="1.55" arrival="109.00" arrivalLane="-E0_1" arrivalPos="112.16" arrivalSpeed="12.40" duration="54.00" routeLength="241.66" waitingTime="23.00" waitingCount="2" stopTime="0.00" timeLoss="35.49" rerouteNo="0" devices="tripinfo_-E1__0__background.12" vType="background" speedFactor="0.98" vaporized=""/>
    <tripinfo id="-E1__1__ego.0" depart="64.00" departLane="-E1_1" departPos="4.60" departSpeed="0.00" departDelay="0.53" arrival="110.00" arrivalLane="-E0_1" arrivalPos="112.16" arrivalSpeed="13.39" duration="46.00" routeLength="241.66" waitingTime="14.00" waitingCount="1" stopTime="0.00" timeLoss="28.31" rerouteNo="0" devices="tripinfo_-E1__1__ego.0" vType="ego" speedFactor="0.99" vaporized=""/>
    <tripinfo id="-E1__1__ego.1" depart="71.00" departLane="-E1_3" departPos="4.60" departSpeed="0.00" departDelay="0.83" arrival="110.00" arrivalLane="-E0_2" arrivalPos="112.16" arrivalSpeed="12.76" duration="39.00" routeLength="241.66" waitingTime="10.00" waitingCount="1" stopTime="0.00" timeLoss="21.42" rerouteNo="0" devices="tripinfo_-E1__1__ego.1" vType="ego" speedFactor="0.99" vaporized=""/>
    <tripinfo id="E0__0__ego.3" depart="48.00" departLane="E0_3" departPos="4.60" departSpeed="0.00" departDelay="0.08" arrival="116.00" arrivalLane="E1_1" arrivalPos="110.26" arrivalSpeed="14.88" duration="68.00" routeLength="241.93" waitingTime="33.00" waitingCount="3" stopTime="0.00" timeLoss="51.86" rerouteNo="0" devices="tripinfo_E0__0__ego.3" vType="ego" speedFactor="1.10" vaporized=""/>
    <tripinfo id="E0__1__ego.2" depart="91.00" departLane="E0_1" departPos="4.60" departSpeed="0.00" departDelay="0.11" arrival="116.00" arrivalLane="-E2_2" arrivalPos="83.27" arrivalSpeed="12.59" duration="25.00" routeLength="215.15" waitingTime="0.00" waitingCount="0" stopTime="0.00" timeLoss="7.95" rerouteNo="0" devices="tripinfo_E0__1__ego.2" vType="ego" speedFactor="0.99" vaporized=""/>
    <tripinfo id="E0__0__background.11" depart="45.00" departLane="E0_3" departPos="4.60" departSpeed="0.00" departDelay="0.54" arrival="117.00" arrivalLane="E1_1" arrivalPos="110.26" arrivalSpeed="12.94" duration="72.00" routeLength="241.93" waitingTime="36.00" waitingCount="3" stopTime="0.00" timeLoss="53.54" rerouteNo="0" devices="tripinfo_E0__0__background.11" vType="background" speedFactor="0.98" vaporized=""/>
    <tripinfo id="E0__0__ego.4" depart="53.00" departLane="E0_3" departPos="4.60" departSpeed="0.00" departDelay="0.87" arrival="119.00" arrivalLane="E1_2" arrivalPos="110.26" arrivalSpeed="12.86" duration="66.00" routeLength="241.93" waitingTime="30.00" waitingCount="2" stopTime="0.00" timeLoss="47.76" rerouteNo="0" devices="tripinfo_E0__0__ego.4" vType="ego" speedFactor="0.97" vaporized=""/>
    <tripinfo id="E0__1__background.0" depart="61.00" departLane="E0_1" departPos="4.60" departSpeed="0.00" departDelay="0.97" arrival="119.00" arrivalLane="E1_1" arrivalPos="110.26" arrivalSpeed="14.06" duration="58.00" routeLength="241.93" waitingTime="24.00" waitingCount="2" stopTime="0.00" timeLoss="40.63" rerouteNo="0" devices="tripinfo_E0__1__background.0" vType="background" speedFactor="1.05" vaporized=""/>
    <tripinfo id="E2__1__background.6" depart="77.00" departLane="E2_1" departPos="4.60" departSpeed="0.00" departDelay="0.27" arrival="125.00" arrivalLane="E1_1" arrivalPos="110.26" arrivalSpeed="14.77" duration="48.00" routeLength="215.24" waitingTime="17.00" waitingCount="2" stopTime="0.00" timeLoss="33.11" rerouteNo="0" devices="tripinfo_E2__1__background.6" vType="background" speedFactor="1.13" vaporized=""/>
    <tripinfo id="E2__1__background.9" depart="90.00" departLane="E2_3" departPos="4.60" departSpeed="0.00" departDelay="0.17" arrival="125.00" arrivalLane="-E0_1" arrivalPos="112.16" arrivalSpeed="11.27" duration="35.00" routeLength="201.84" waitingTime="9.00" waitingCount="1" stopTime="0.00" timeLoss="17.75" rerouteNo="0" devices="tripinfo_E2__1__background.9" vType="background" speedFactor="0.90" vaporized=""/>
    <tripinfo id="E2__1__background.7" depart="80.00" departLane="E2_3" departPos="4.60" departSpeed="0.00" departDelay="1.16" arrival="126.00" arrivalLane="E1_2" arrivalPos="110.26" arrivalSpeed="11.86" duration="46.00" routeLength="210.29" waitingTime="15.00" waitingCount="1" stopTime="0.00" timeLoss="29.13" rerouteNo="0" devices="tripinfo_E2__1__background.7" vType="background" speedFactor="0.94" vaporized=""/>
    <tripinfo id="E2__1__background.5" depart="79.00" departLane="E2_1" departPos="4.60" departSpeed="0.00" departDelay="2.54" arrival="127.00" arrivalLane="E1_1" arrivalPos="110.26" arrivalSpeed="14.75" duration="48.00" routeLength="215.24" waitingTime="15.00" waitingCount="1" stopTime="0.00" timeLoss="33.30" rerouteNo="0" devices="tripinfo_E2__1__background.5" vType="background" speedFactor="1.16" vaporized=""/>
    <tripinfo id="E2__1__background.10" depart="98.00" departLane="E2_2" departPos="4.60" departSpeed="0.00" departDelay="0.15" arrival="127.00" arrivalLane="-E0_1" arrivalPos="112.16" arrivalSpeed="11.84" duration="29.00" routeLength="201.84" waitingTime="3.00" waitingCount="1" stopTime="0.00" timeLoss="12.22" rerouteNo="0" devices="tripinfo_E2__1__background.10" vType="background" speedFactor="0.91" vaporized=""/>
    <tripinfo id="E2__1__background.8" depart="83.00" departLane="E2_3" departPos="4.60" departSpeed="0.00" departDelay="2.50" arrival="128.00" arrivalLane="E1_2" arrivalPos="110.26" arrivalSpeed="14.28" duration="45.00" routeLength="210.29" waitingTime="15.00" waitingCount="1" stopTime="0.00" timeLoss="29.78" rerouteNo="0" devices="tripinfo_E2__1__background.8" vType="background" speedFactor="1.09" vaporized=""/>
    <tripinfo id="-E1__1__background.5" depart="108.00" departLane="-E1_3" departPos="4.60" departSpeed="0.00" departDelay="0.08" arrival="130.00" arrivalLane="-E2_1" arrivalPos="83.27" arrivalSpeed="13.58" duration="22.00" routeLength="197.80" waitingTime="0.00" waitingCount="0" stopTime="0.00" timeLoss="7.29" rerouteNo="0" devices="tripinfo_-E1__1__background.5" vType="background" speedFactor="1.07" vaporized=""/>
    <tripinfo id="-E1__1__background.3" depart="88.00" departLane="-E1_2" departPos="4.60" departSpeed="0.00" departDelay="0.65" arrival="133.00" arrivalLane="-E0_2" arrivalPos="112.16" arrivalSpeed="14.04" duration="45.00" routeLength="241.66" waitingTime="17.00" waitingCount="1" stopTime="0.00" timeLoss="27.55" rerouteNo="0" devices="tripinfo_-E1__1__background.3" vType="background" speedFactor="1.02" vaporized=""/>
    <tripinfo id="-E1__1__background.2" depart="84.00" departLane="-E1_1" departPos="4.60" departSpeed="0.00" departDelay="0.84" arrival="134.00" arrivalLane="-E0_1" arrivalPos="112.16" arrivalSpeed="12.03" duration="50.00" routeLength="241.66" waitingTime="16.00" waitingCount="2" stopTime="0.00" timeLoss="29.52" rerouteNo="0" devices="tripinfo_-E1__1__background.2" vType="background" speedFactor="0.88" vaporized=""/>
    <tripinfo id="-E1__1__background.4" depart="105.00" departLane="-E1_3" departPos="4.60" departSpeed="0.00" departDelay="0.02" arrival="135.00" arrivalLane="-E0_2" arrivalPos="112.16" arrivalSpeed="14.42" duration="30.00" routeLength="241.66" waitingTime="2.00" waitingCount="1" stopTime="0.00" timeLoss="13.32" rerouteNo="0" devices="tripinfo_-E1__1__background.4" vType="background" speedFactor="1.12" vaporized=""/>